# vtk DataFile Version 3.0
vtk output
ASCII
DATASET STRUCTURED_POINTS
DIMENSIONS 15 20 65
SPACING 1 1 1
ORIGIN 0 0 0
POINT_DATA 19500
SCALARS Image float 1
LOOKUP_TABLE default
0.934405853709 0.988196364099 0.859228202855 0.719526183686 0.794944891684 1.18433033113 1.12991305809 1.14184924421 1.18199529146 0.97432643319 0.775379111162 0.992916241005 1.3300081414 1.22434387149 0.722803171267 
0.908959755031 0.778231798998 1.186055098 1.06702678043 0.92048245426 1.16570709319 1.25291339871 1.21378029165 1.00211135818 0.901816481413 0.911119470107 1.12037815174 1.16356688925 1.20477077501 1.12303800589 
1.20709325898 0.851024302586 0.817426303137 0.827853876508 0.997672335384 0.794710564676 0.983771098423 1.21355426606 1.08131564759 1.10663980733 1.16801335257 1.06249484358 1.34812069006 1.08195379652 1.05592995369 
0.554924191282 0.665631025329 0.892279294826 0.951363381087 0.969752555015 0.93293835572 1.36407790002 1.19225648521 0.962113368295 1.10978205901 0.940956247172 0.99451551714 1.11387381702 1.22303930723 1.004817615 
0.625259262719 0.910205515538 1.04128954545 1.04734799855 1.18263215762 1.00829586961 1.10958609653 0.983383154606 0.884362389079 0.99458875435 1.06217931329 0.947807529598 0.763365991289 0.972194590268 0.998210076983 
0.525416414026 0.864856579541 0.910433923351 1.22918805747 1.24405644456 1.41867852878 1.4170568029 1.04341146972 0.739177548603 1.01848835178 1.1023221356 1.06451397867 0.763825211797 0.856622289034 1.07344152779 
0.893556522773 0.943633680997 0.688229454136 1.18366713411 1.15333499858 1.07444734214 0.941534570772 1.08530348458 0.871522519524 0.946300527742 1.46341538319 1.43321134717 1.03494361106 1.06603258055 1.03289298117 
1.09333800928 1.03673231117 0.823355738895 1.29973889498 1.1843406697 0.885988531471 0.888216639201 0.914995468198 1.23509207281 1.33417675739 1.44724965524 1.25770998903 1.4877341819 1.43212197906 0.982069909663 
1.3991008082 1.01848708296 0.778857843908 0.989589639826 1.40418631054 1.37094463097 1.08470042382 1.01865860909 1.01320070816 1.10920078812 1.04343116857 0.838432868461 1.17668944595 1.10330981149 1.01510551807 
1.15773930151 1.2564304336 0.678079207505 0.419448085078 1.10627434207 1.20162758839 1.10907976168 1.4132307558 0.866658647531 0.832474660229 0.471736772442 0.756056907407 0.997185515178 1.03956000597 0.90867627013 
0.921480853775 1.17767194356 0.855591710957 0.626434561293 0.873809349224 0.792541575763 1.10031268508 1.26753677264 0.964028168005 0.769799561128 0.454192782997 0.589611553437 0.675185069923 1.0069303359 0.98697994895 
0.956546194655 1.23647807388 0.950778442538 0.994030378371 0.997382575255 0.95581645482 0.86301311528 0.639702734378 1.01991289622 0.839851543393 1.03987847642 0.900491034991 0.928445976532 1.01175407055 1.00760173546 
0.74231029657 1.47311741598 1.26268791323 1.03882434378 1.10986613555 0.950791181514 0.98397462296 0.811128306396 0.78572953036 1.12534629852 1.34893758083 0.924419940808 1.08823902347 1.08019863492 0.926075838851 
0.795196260156 1.09072834928 1.04052166608 0.822909199187 1.03143513305 0.915290085052 0.895385412649 0.65940680571 0.706334747433 1.11115966917 1.29121759058 1.18274396608 0.872689921799 0.54843530423 0.706819609106 
0.705972791461 0.98695173904 0.947139133229 1.23580842327 1.1726626073 1.3448762414 1.2448454514 0.921726989433 0.679014048031 0.924632648356 0.802177949358 0.779152109492 0.903005808381 0.743949469824 0.942171520226 
0.51929144374 0.886932427911 1.06449276284 1.38651386866 1.10445428648 1.30071188826 1.08302195666 1.03006671146 0.723993141553 0.671136943707 0.636193997299 0.847050248581 1.11978000961 1.04982637251 1.45753088021 
0.636054957501 0.902105108109 1.47178628947 1.0281980979 0.911923217551 0.94154640956 0.982688172771 0.98117394514 0.940276325752 1.1258446334 0.81276933605 1.17040201533 1.22069946277 1.27872692128 1.30020813002 
1.12368039587 0.602843509009 0.790716848278 0.858620424098 0.955777156298 1.07470646435 1.30270236865 0.684574866523 0.866512108791 1.0381840589 0.88790206405 1.00453525924 0.950706748199 0.987122930752 0.876001401819 
0.969456537524 0.6256777181 0.79714339753 1.05924700712 0.619593806791 1.24265945555 1.10679939144 0.542875718923 0.972815781084 1.00735638598 0.700733006748 0.841049830322 0.82103056961 0.831258133579 0.687851605736 
1.27586887195 1.06310957567 1.21280800478 1.34134586465 0.99626973119 1.43668482002 1.42071930786 1.48814017723 1.34870702262 0.921281222918 0.702537091458 0.89751255555 1.22574120175 1.28226620717 1.17228038316 

1.14069782969 1.09706162302 0.750544681343 0.902319292183 1.05807229946 1.47866183221 0.915625406921 1.12466262608 1.36026593194 0.969273456594 0.805399775382 0.892450827945 1.0171460481 1.11128225361 1.15570112545 
0.719159084021 0.695072731473 1.08705055135 1.194562851 1.02330643622 1.09443869601 1.09836447259 1.24809166819 1.21041953654 0.925286719646 0.923544023833 0.852519979235 0.975627111791 1.33458427089 1.33219042518 
0.941549470194 0.62255420429 0.94422293058 1.21393030809 1.16414778802 0.880679800451 0.804718119574 0.870800902699 1.00215531721 0.937903384913 1.1278801567 1.1474036762 0.928481338014 1.1176822994 1.41337269321 
0.711907053374 0.661949538809 0.78536423291 0.994187878989 1.39571907234 1.34212294845 1.06657960369 1.01517439761 1.07061291613 1.32770016445 1.1201333568 1.30000775459 0.698763147653 1.35753535793 1.81451064658 
0.809159844876 1.04724837251 1.00380667594 0.941429980155 1.03087098201 1.00284473053 0.957033850301 1.16082910717 1.31319026129 1.04381653198 0.941570167704 0.829087965352 0.534889569203 1.04769381359 1.29518248077 
0.696540189247 0.914684824731 0.97837523938 0.862968783327 0.869650777239 1.24317964408 1.32419743669 1.05588212925 1.04672456628 0.727587382303 0.813308346383 0.54719133576 0.646433585346 0.669433873805 0.75085808834 
1.17647129131 1.02180566497 0.926486452837 0.853713706631 0.896573581036 1.1829406765 1.05429420347 0.947853563043 0.976573686496 0.759727966068 1.17845384503 0.978825631519 0.712540123703 0.719545264049 0.754788672361 
0.936847934114 0.976716925151 0.981074991888 1.22299373957 1.03196854502 1.09280248326 0.758641188486 0.80662062741 1.14474740845 1.1280843069 1.01032458505 0.94421279771 0.872666055434 1.06743594226 0.958412812455 
1.11625926028 0.710698600443 0.789337289289 1.15732948719 1.10319993052 1.19041195941 1.13591580419 1.21034002999 1.19270407071 1.10343446798 0.907843236464 0.726870660325 0.834730862767 1.244925563 1.03631973101 
1.38017419039 1.00986715294 0.387873440331 0.625088359789 0.992132529265 1.18259882955 1.00441067979 1.27250401244 0.890025657147 0.681499752838 0.476973339515 0.686901255627 1.10915687486 1.23697002951 0.874016269184 
1.15309119106 0.959908615947 0.727685247607 0.551499547655 0.872750791272 1.13590730152 1.18421924652 1.06868306681 0.8991782775 0.852696262374 0.701779156554 0.719725790909 1.00145969642 1.00574271618 0.736488452423 
0.911784932001 1.22526831983 1.13845231592 0.922343546237 1.11262875665 0.957364377875 1.00835476052 0.908789454285 0.951448161818 0.857017538999 1.10373924686 0.927715099043 0.824055943824 0.936603605998 0.6927871044 
0.814382911798 0.991349357826 1.21243954778 1.12087366104 1.20824369605 1.02426637202 0.836411262522 0.881610072954 0.625589938464 1.22134298534 1.48234300943 0.976905352345 1.2249319666 1.18443436015 0.855917069131 
0.883243933805 0.939668968911 1.11304103831 1.12523514164 1.43075928334 1.07378409771 0.764716509099 0.845802041698 0.78893507876 1.09694611065 1.3663240164 1.26356405892 1.23100431894 1.1778998762 0.962783402519 
0.726845667941 0.993595541047 0.93452486633 1.10556181492 1.21124741798 0.937537289469 1.0691012235 0.954617458058 0.90549017765 1.19629172059 0.938024576491 0.592963116739 0.912167758992 0.919706961243 0.777373898863 
1.05873502122 1.11021147762 0.938437705255 1.20676563649 1.14366233493 1.21018745413 1.18009431284 0.810179997888 0.741082724803 0.85035491481 0.973552085496 0.92475180555 0.93073596004 0.757905338494 0.980268309059 
1.32091983938 1.19005011557 0.887632925014 0.811131217874 1.1130354975 1.21665518781 1.02883683424 1.00123739904 0.837483205356 1.02279890486 0.924936123874 1.24810570692 1.40131867993 1.26789849131 1.09443015765 
1.29761813809 0.862901003806 0.911216034347 0.972025071998 1.11425929809 1.31021391841 1.35826161626 1.18177822397 0.623995249011 0.797104481766 0.762528787572 1.09824680932 1.13550268672 1.1002246613 1.06669080704 
0.86097745312 1.23765746799 1.15880487208 1.07422490438 0.978121360826 1.25006650508 1.47837363783 1.19843681114 0.7452469138 0.677803595506 0.822865957602 1.12825251902 1.18814303935 1.02691797947 0.821000064351 
1.30225267818 1.17748824 1.36101357051 1.17131523082 0.957551178213 1.26343836563 1.42793929791 1.03058614478 0.896590884371 0.762912854295 0.66233967476 0.908425309268 1.25275390404 1.25265234615 0.740133437158 

1.15509420753 0.955754953101 0.506734144763 0.728199267354 1.06622114818 1.17292222838 0.94297595927 1.13119990489 1.63320788564 1.54175409657 1.36912242379 1.05979673212 1.1013415215 1.01864472455 1.10574175384 
1.06734334755 0.99357559045 0.786714579618 0.529296473233 0.934835556925 1.19395249739 0.933133360288 1.0207585902 1.18252968718 1.4213943978 1.23977443499 0.766963433639 0.916781896174 1.082889963 1.16645115042 
1.33173704138 1.37285728786 1.25638145891 1.01159717119 1.02639975062 0.939748392113 0.53888463816 0.755450030662 0.868062713878 1.04229896644 1.13814590943 0.79366324389 0.792801484064 1.05455270873 1.06236880526 
0.892391209419 1.29903420137 1.25924164936 1.00326967749 1.09310583296 1.1801105702 0.863494635739 0.97416675664 1.00728149563 0.79106866807 0.892333810134 1.01054817541 0.628129026509 0.910183126222 1.06914580979 
0.95803254249 1.03406554461 1.14265259485 0.894890773346 0.851428532624 0.962789733799 1.08305667157 1.40466877441 1.18066156336 0.77402008843 0.608453098848 0.855102073017 0.462940857122 0.737073080136 1.01232440887 
1.06948392308 0.988737719368 0.849057751564 0.700530735706 0.674558211159 0.935585292149 0.994301657121 0.915344337904 0.87160170019 0.744129795615 0.688627319466 0.874553194573 0.649510838872 0.852754378236 0.905428439895 
1.06090851101 1.18028142575 0.932588153155 0.786609137443 0.823311506619 0.913730061384 1.00594568895 0.69470920803 0.705856354411 0.660895830982 0.927070636476 0.831998973807 0.726498837263 1.05382116569 0.91443771355 
0.97121855584 1.11054552334 0.887327838087 0.839153956698 0.880813469443 1.08939080791 1.17580561849 0.79917892132 0.962945240959 0.977087880012 0.983637011719 1.1978757249 1.19440747102 1.17521974689 1.16820217249 
1.00603210979 0.574104474083 0.665747108148 0.890087230537 1.13127327485 1.09153909038 1.11314139868 1.19782369772 1.27850982252 0.993263969358 1.28085684833 1.01237315017 0.816803172289 1.24689019777 1.1486033658 
1.32244609694 0.705614167229 0.572457836895 0.962610128139 1.09091632966 0.976082708563 0.96747684256 1.45194197955 1.42829764025 1.11643413188 0.938092970817 0.833038023699 0.827874570942 1.30603478354 0.867511381072 
1.07635317773 0.936240420644 1.01869914362 1.10046643425 0.828280035915 1.19091125784 1.05595195631 1.35342471168 1.41580078614 1.14474675957 1.00292623122 0.876565359282 1.06084020664 1.12826937293 0.77411264765 
1.03530792726 1.02463429879 0.705969192989 1.06559132544 0.968109634622 0.789356390553 0.784863144076 1.04399488471 1.43542241467 1.23663272318 0.922333921833 0.920525408627 0.882257605987 0.931004318609 0.798691986469 
1.08234228715 0.752765426704 0.619757314347 0.73375307838 1.36106481692 1.46228429419 0.921978731301 0.73974914846 1.25494981336 1.48569437163 1.00667810311 0.97376157464 1.02543178132 1.2717965479 1.14560388856 
1.15900027307 1.25468247975 1.11965533825 1.15772507857 1.45198340431 1.27598943483 0.988057461821 1.04918460433 0.890932594276 1.21839211576 1.07506133043 0.728758523054 0.970754816824 1.27511011792 0.93591533954 
0.882906624708 1.03187527708 1.34103593304 1.38928429204 1.21324448757 0.859199042507 0.91428481375 0.767688127418 0.685719557705 1.17520386066 0.79202235211 0.513576357797 1.0451819757 0.846271983631 0.549905657793 
0.963232572294 0.718199523427 0.997858622971 1.14656009017 1.13334181355 0.852422794218 0.854072760003 0.562597226645 0.534148568413 0.671692755915 0.825761851326 0.780306448373 0.89515025631 0.661552997477 0.563251270257 
1.27493190759 0.912098297903 0.763669558401 0.820717927214 1.09388569836 1.0206000404 1.00755277663 0.823976583972 0.819004960191 0.598728882342 0.76486446159 1.07747396196 1.01257902387 0.810178354402 0.676403042468 
0.853204391241 0.598925584603 0.719712613502 1.14815984208 1.06134026416 1.10162660145 0.996140247845 0.804536217419 0.602701792854 0.689180953747 1.26711047707 1.38655269172 0.818023641665 1.12919395032 0.96366158868 
0.81730092627 0.814622479621 0.535960443966 1.01225951738 0.83351149272 0.876853670885 0.897609154729 1.0671709345 0.904808773097 1.07472571579 1.28073083699 1.33226505349 1.3635457646 1.25045753982 1.07061307706 
1.0346622838 0.80642085404 0.922330795583 0.716613724347 0.551218960404 1.38672068328 1.50021135183 1.09963443398 0.906199539008 0.859315357907 1.10260622186 1.14803739425 1.51398894112 1.46446799318 1.32977473055 

1.30463624438 1.24600735776 1.10323442078 0.748041667684 0.873463277079 1.22329023765 0.981719128115 0.787932197709 1.08956198431 1.27925566002 1.37747241636 1.0828513095 0.95462609725 0.634786965872 0.897806949658 
1.27986054733 1.07927498539 1.09430709842 0.932212113665 1.02456606578 1.06412419484 0.993959275458 0.833538013544 0.890477737161 1.1547490478 1.24243988035 1.04115368321 1.32717597413 0.927019890236 0.816676164783 
1.34915357195 1.03743058657 1.26495375365 1.16227855301 0.80446566869 0.624927919914 0.608807016744 1.03894474672 1.13523055533 1.00402394647 0.784022981923 1.05926387882 1.18154199724 0.903898252355 0.68432950795 
0.683556425897 1.1539423194 1.16614428511 1.12116167142 1.23278078466 0.896513422316 0.653197776328 0.842399502671 1.20113876185 0.789013867734 0.574176509717 0.886269028072 0.928959693998 0.641414612993 0.642531823868 
1.11987509121 1.06942974147 0.924846064676 1.11926713044 0.954291554322 0.893924478604 1.04543361946 1.00314792872 1.30716027756 0.957486198485 0.590816180536 0.856646031542 0.956707985338 0.517868316326 0.49976605086 
1.32127545877 0.918207866414 0.951891527861 1.14157162192 1.07981039524 0.978215686666 1.04324343567 1.11057063382 0.62475144699 0.435557296175 0.493337425066 1.0333090815 1.24518462677 1.25139694636 0.868598300249 
1.10419481154 0.639860459116 0.721818088999 1.05136365289 1.11400159095 0.862102678307 0.854045650565 0.720826080146 0.660119139136 0.777266929151 0.786151586764 0.994379339721 1.34211344409 1.53210987594 0.983785603809 
1.12932792301 1.21680460702 0.975871607356 0.92420383083 1.07774666997 1.11854038138 0.783569009636 0.716916165032 0.852473219556 1.06878620927 0.910193411609 0.987499077115 0.946162959167 1.20863658536 1.07632098855 
1.15290734306 1.30935915161 0.852490624257 0.65167623111 0.838792723138 0.958887882865 0.937926886353 1.05640863408 0.945237412753 1.04618394813 1.20818132286 0.956504843885 0.647034076895 1.11053068241 0.899904185553 
1.49975885292 1.19602873684 0.900716210474 0.70091606777 0.955382445004 1.16684661453 1.16704355889 0.956937199723 1.10163003777 0.917672389558 1.05352798058 1.01539227289 0.706943355151 1.36751367892 0.952754193509 
1.21694597116 1.26516536821 1.21261387201 0.897413383493 1.03103822535 1.15862939381 1.25680409584 0.957451906795 1.09415727266 0.731221006233 0.965623132785 0.889508578889 0.993711139969 1.43203893806 0.99258872945 
0.966697843495 1.13788492526 0.943911897299 1.00487289166 0.565624052101 0.561547887406 0.838254509106 0.870444816158 0.924414292308 0.551552498133 0.529607860246 0.895807262199 0.898147205331 1.02683964559 1.16027128543 
1.09874850846 1.19051244977 0.972146801538 0.617561355625 0.809545490418 1.17470360264 0.75582795302 0.790644959542 0.863170457149 0.940003944848 0.873429811406 1.28222623853 1.16601550682 1.22700465063 1.31006142872 
0.809840991505 1.12160821678 1.00076783366 0.981676326923 1.05505863629 1.23634207367 1.03058310696 0.95138093655 0.903583202511 1.46778390365 1.24532240532 0.945027527078 0.927679085175 1.02908502154 1.17363401947 
0.775266371741 1.0490448036 1.31779116786 1.09989556046 1.02020046298 1.05671295468 0.992277714284 0.961672321301 0.905889045341 1.21547798223 1.00268299254 0.833955285875 1.07741553828 0.672237872889 0.629064114283 
0.659135684651 0.597152489189 1.13772616119 1.16333147319 0.961296064623 0.833281596239 1.26738912896 1.15908509345 0.943908098492 1.00616633957 1.00533968523 1.14231552722 1.02881340384 0.848495198674 0.615312490705 
0.88445764002 0.530104398463 1.10334191203 1.32299720703 1.02227479223 0.895080246087 1.0498030623 0.959900686382 1.06189680472 0.7397940184 0.750609792981 1.10881813527 1.13720116706 0.996500098127 1.01426340735 
0.87843296079 0.610587500303 1.09661395177 1.45783021158 0.982479540041 0.922845605501 0.991931311373 0.838352247265 0.971480607671 0.870521170752 1.22701663465 1.35513250662 0.923399429082 0.805686996052 0.822595450692 
1.19936798478 0.8962150897 0.723971758064 1.22834081024 1.30124410863 0.827983097992 0.770364372254 0.840545208542 1.03805744905 0.999435034094 1.16350471337 1.24549354966 1.13322209072 1.0830087356 1.06877614487 
1.2454849142 0.482497136613 0.707827729784 0.916528433411 1.26934037125 1.47125177494 1.26971580397 0.688485190986 0.647004701479 0.896282980025 1.0417091624 1.06519543207 1.44890775405 1.26644788251 0.997981455972 

1.34926490104 1.34524659186 1.12993205257 0.590411858903 0.662143841728 1.00517427539 0.977493419361 0.540952458422 0.58413745691 0.751382388752 1.13635616852 1.34756702539 1.27460535278 0.985275817741 0.67146269214 
1.52681030142 1.17135109858 1.25776222968 1.12235079815 0.789954573087 0.960681886795 0.590259872779 0.488886065202 0.851137497692 1.16528958274 0.924585785675 1.19719938788 1.39022908561 0.961850698246 0.848673208939 
0.922528495564 0.71474165604 0.91189632138 0.87713441454 0.945570717716 0.830553402706 0.229665803816 0.671058199307 0.987986115428 1.11837040918 0.656562182327 0.758459370801 0.963573535741 1.13668118211 1.02169163651 
0.542214214064 0.72302672765 0.881458421826 0.851186123029 1.34726298495 0.653928908099 0.594657114817 0.495232143667 1.03838435711 1.17070145573 0.783432217894 0.781943811907 1.34238111395 0.836376679764 0.89827222084 
1.33114697138 1.01894570309 0.975676222084 0.872753076602 1.16270034579 1.04649411325 1.04127920839 0.531738383462 1.25709495973 1.14223908765 0.685742590205 0.872299159667 1.2524876701 0.527868659129 0.612989225027 
1.60194920884 1.12157362646 0.893034015731 1.03377295701 1.1514112658 1.35012110637 0.861880131497 0.675704617788 0.433572422009 0.529396418795 0.687254752424 0.714023484284 0.862486455756 0.826171411636 0.661108820496 
1.6125426918 1.25521169674 1.05003978061 1.10167848752 1.19868860427 1.29877630247 0.912451628649 0.974849494806 0.773990710784 0.9419919408 1.05759031081 0.970155905693 1.05956759784 1.04376651034 1.05350167997 
1.39196052881 1.431548789 0.964863639733 0.785403044421 0.918295691247 0.928364697551 0.979165011601 0.855015186635 0.73365850054 0.99727728475 1.06998541203 1.01807972114 0.969455774294 0.857861062352 0.98098334604 
1.41295525954 1.30602605898 0.856450969679 0.615399418842 0.640982256831 0.725226594707 0.769078038885 0.774114662367 0.832511016535 0.970324626983 0.765295269041 1.28464867201 1.09928199676 0.95634298667 0.832704647144 
1.36292217817 1.09217080636 0.897098330482 0.516539654244 0.925605062413 1.03799050917 1.09616321455 1.11818900325 0.950936381808 0.990788092723 0.914226128308 1.52714159472 1.03041630547 1.39259561081 1.11661968575 
0.899269935393 1.02976635631 0.863587293736 0.695496823412 0.933771725778 0.982419386908 1.36550054215 1.3130203424 1.09849392592 1.02583269759 1.1295243849 0.984330124619 0.950435285765 1.03809162654 0.931984619692 
0.824188695465 1.003390412 0.86724076713 1.11724418878 0.850698252458 0.845009225065 1.20597317713 1.01480587183 0.909636148319 0.741378194731 0.822387053432 0.97495316169 1.15318329885 1.02325111609 1.02904569985 
0.866894832633 0.894975799213 1.09393867058 0.968599330328 0.981169690133 0.931893308749 0.807556691967 0.918734617972 1.09265969219 0.780763449193 0.935580024068 1.2514403444 1.25981457762 1.53390028392 1.26550956954 
0.589103416867 0.814497099901 0.930385774311 0.937079202235 0.909136763074 0.705536110619 0.984047270824 1.06719534682 0.919467016746 1.0559339212 1.05601878786 1.0849511335 0.966649778103 1.37137188239 1.51149575695 
0.776166453009 1.20971717044 0.957834342324 0.614698628505 0.564098734127 0.69995893027 1.1251812583 1.02183348819 0.677989467961 0.747017211576 0.67931114194 0.945505970414 1.0476160454 0.928851146328 1.25700716523 
0.665844212926 1.19682839792 1.27508734929 1.03721576177 0.662746427547 0.867513598952 0.993833284886 0.891577544779 0.732874278628 1.03563445707 0.739946392195 1.02252975087 0.939234249319 0.872638803153 1.05860598019 
0.756258774318 0.691943585915 1.06717128892 1.25542386814 0.962324888091 1.04272168022 0.982523126584 0.794414267962 1.11129341826 1.20881834956 1.05282414674 0.990244053656 0.824207186032 1.05274731983 1.29996621349 
0.928624941905 0.822575732669 1.14004565877 1.22253487508 0.853811992995 0.756561468992 0.988308784855 0.883505286166 1.00121110094 0.71209320648 1.08675822666 1.15464754932 0.855857957246 1.17948506463 1.30764808102 
1.18992217558 0.855927307228 1.1599992798 1.39117691769 1.10261761673 0.603769871569 0.774408001213 0.831377613117 0.914263373408 0.773121436775 0.869350287775 1.22328045085 1.17674173309 1.22424993513 1.31716125447 
1.03027286391 0.862429092648 1.27959739869 1.31846495509 1.04991907852 1.00660135315 0.95194897718 0.655243693482 0.91136959809 0.754725944764 0.944650769504 1.36348868789 1.31520700068 1.06221518148 0.910956495603 

1.32471962178 1.12604444793 0.960899655827 0.824095612746 0.672408550662 0.845282987973 0.95762740159 0.899008547169 0.605013425771 0.387112059009 0.505475506096 0.941788537626 1.27103518393 1.18654348278 1.26597707997 
1.29216558786 1.11642427163 0.846534486521 1.00114790924 0.992758475136 0.783263318105 0.428546496437 0.456211915304 0.861990089397 0.708778206204 0.254052443755 0.378743970703 0.441510630288 0.780157123276 1.10533158661 
1.12289240462 0.9629290964 0.612634170985 0.580960755757 1.06321352543 1.35636786776 0.793576215286 0.715276160401 0.968533799468 0.984608571155 0.521798225396 0.447597839326 0.411465838973 0.681191791425 0.786591476079 
0.815434102216 0.794833085528 0.916569907706 0.755004208031 1.34911982937 1.37474843767 1.06260623965 0.604465770608 0.845566912391 0.833264269942 0.747722025273 0.85874382733 1.02031404654 0.727907781228 1.15288310704 
1.19121685784 0.789020331603 0.719264417073 0.732114994072 1.21558466683 1.15107328347 0.828137393705 0.515595283528 1.01469350923 0.782608420924 0.54367807253 0.791488754608 1.0122450536 0.849674082329 0.947890979017 
1.5348318617 1.30446630211 0.894696431293 0.665086103338 0.808955204689 0.935440814448 0.76529946759 0.714740248935 0.609983377166 0.527630115696 0.609281962206 0.891983607884 0.91871826677 0.850751156562 0.623735544322 
1.63599462017 1.80995742052 1.22847089286 0.758958874303 0.868703563448 1.06342177958 1.001743924 1.12608273514 1.19656799153 0.716847347482 0.749596993434 1.08750111812 1.0306164545 0.840861789935 0.967405090364 
1.08270212316 1.13967550147 1.07122762566 0.913721419623 1.36385556424 1.38551838522 1.18271882188 1.04335153208 1.18661610286 1.02865857012 1.13626247055 1.2852365501 1.26601451251 1.17994916864 1.34836960118 
0.962092967803 0.599647135877 0.331524557624 0.765829530531 1.00284315088 1.31672112179 0.949279661028 0.917038711018 0.997192954435 1.0696479354 1.08075794699 1.18550752589 1.1325341745 1.28682738962 1.30866452291 
0.974113529116 0.627967637299 0.561362028659 0.534337146481 0.623924172235 1.44240441537 1.43604830827 1.34795805575 1.16921460189 1.1266611899 1.13422518831 1.27248927553 1.04638123761 1.22451688565 1.00660840376 
1.16724951405 0.798442295255 1.08690567164 0.975588325136 0.955637677264 0.991954312355 1.17382818541 1.11617419796 1.12121247741 1.27374422326 1.32234112491 1.11876725468 1.00515541499 1.22021428059 0.947696744346 
1.14645096087 0.875879172808 1.02653516111 1.18756349786 1.0308985978 0.931090263388 0.959254530935 1.01338894138 0.911586574797 0.835385998079 0.807317375011 0.76495752442 0.814994522142 1.01899780173 0.810333453578 
1.08269683126 1.16716865288 1.18231416061 0.973619053446 0.987967414635 0.851450956655 0.96270798723 1.34760612761 1.0908247552 0.871793577581 0.950940252354 0.720247457219 0.562292156233 1.3182506149 1.24678042293 
0.58515811282 0.619833197504 0.84250412041 1.01535133384 0.955865265781 0.731382887325 1.15975801977 1.21034867146 1.07081369671 1.25815461475 1.03550903291 0.711644943781 0.70865517268 1.31068741029 1.47669947282 
0.650905313383 0.650990196551 0.798191615616 0.655455304491 1.02136335591 1.03792826081 1.13700198152 0.984222522066 0.842445981564 0.962308059833 1.50689899818 1.18108434662 0.962406887266 1.40503486106 1.50615443639 
0.85347611151 0.902326117747 0.841169726365 0.72689985237 0.94208917568 1.08107689265 1.09565354546 0.990952654133 0.750226549461 1.18671644732 1.42457160895 1.15895606989 0.581804470006 0.757682525126 0.946285273253 
1.02379953941 0.699954000541 0.840589017767 1.08591536586 0.847194355408 1.02284117833 0.955398982241 1.09353257762 1.00038136314 1.23949344805 1.5171916481 1.0839101353 0.511429174229 0.606805909438 1.20226733229 
1.03078540522 1.1454756669 1.18332808332 1.74027409384 1.28687402146 0.531162256945 0.659857195362 0.990982431914 1.1554394816 0.825584599386 1.29768226745 1.12228603578 0.848197342704 0.975656289252 1.21849996357 
0.943113546565 1.0083260505 1.374855086 1.39889594591 1.18291024622 0.695980471849 0.616413555508 0.668004585139 0.688015495052 0.500612922981 0.843544953088 1.31822218238 1.16978184935 0.902612706285 0.835531588703 
0.757649545347 1.24178227043 1.49439913563 1.09045362625 1.16965344955 1.03973802624 0.817986762003 1.01097911471 0.659562338103 0.7945099279 0.869917003279 1.28490004654 1.0093707915 1.01693947938 0.818344512527 

0.649686345491 0.832271197059 1.12241505208 0.913833851724 0.837277893341 0.934397459842 1.00478146161 0.700563207637 0.736041232809 0.715103023711 1.00406900661 0.867238199747 0.614195713766 1.04120384606 1.15393208855 
0.745554560752 0.787868742185 0.790826169994 0.919523398902 0.838586073355 0.948488083962 0.738197315064 0.727628982739 0.792342663203 0.99105820916 0.918342394311 0.794384526879 0.680816401391 0.832582632365 1.16017451013 
1.00725912826 0.806041005419 0.482510652013 0.602240763308 1.06820762206 1.34324154356 1.05290288116 0.895491093564 1.01063532097 0.784432843683 0.7251816223 0.743322854064 0.754260164375 0.820834246341 0.886672641105 
1.06743635817 0.992032263898 1.06363045863 0.845677735304 1.33227394473 1.34239125335 1.13574586365 1.00662872878 0.942959143319 0.783265333738 1.01582366775 0.990423240255 1.20873844789 0.990616324294 1.2008394335 
1.15488963573 1.05870728468 1.10764650627 0.981310683622 1.24037053502 1.19430307141 0.977363960555 0.955274162906 0.907816382657 1.01459325442 1.06531111616 1.01364624831 0.982603807805 1.17040389279 0.970087923496 
1.03408783761 1.03743475605 1.01851509903 1.24798722227 1.26053294592 0.843377750579 0.760604316149 0.885136311414 0.661711486019 0.771311872628 0.688968876622 0.787076376936 1.04015406093 1.29036442446 0.956601411096 
1.15795085867 1.17870616889 0.918264349302 1.18420029504 1.35021939048 1.05623744049 0.906298172653 1.33514810859 1.45941116743 0.587816968201 0.422343393158 0.868174512309 1.08946375096 0.993763989876 1.2874420722 
0.877271874067 1.11903630061 0.977885968168 0.923315965832 1.41854910058 1.16056763804 1.09093836989 1.08082034475 1.14950621479 0.550652606175 0.765002042707 0.892529137625 1.32277256659 1.46176548862 1.20704622912 
1.19921162946 0.739058784959 0.639120634081 0.734373101391 1.06892179294 1.14294829437 0.966218468643 0.856372424593 0.837642543524 1.19951340669 1.28412147013 1.04191773053 0.717140564382 1.29867499897 1.30975950008 
0.771847355306 0.680110266256 0.770689482537 0.831902618489 0.826182104221 1.04618430257 0.730895757415 0.748706581286 0.895596454077 1.27930579077 1.29161412603 0.839633294465 0.625081632367 1.19211535317 1.25493959595 
0.814870908115 0.429547216345 0.61864307631 0.921317093912 0.729848079262 0.958131408044 1.03426712194 0.822393664993 0.979939626184 1.29164170921 1.38861339619 0.834847080704 0.749759464852 0.987554277813 1.33415065701 
1.27309928412 0.788446804957 0.776075861463 0.859853168923 1.03520839486 1.15097476022 0.984000217907 0.977230907654 0.863410719929 0.688935545608 0.934308503681 0.761937050102 0.613365338609 0.766378301358 1.02469134934 
1.10140676374 0.673078726865 0.624358748147 0.806111228494 0.887414935889 0.917503499275 1.01769487869 1.27059374222 0.876025187481 0.715681747003 1.0152640883 0.734564355907 0.554319122324 0.641042566307 0.859801625919 
0.793014042442 0.603652759368 0.827010884683 0.955229707792 1.1828823067 1.16140114489 1.24076112448 1.4433381595 1.30723840391 1.41402803142 0.93727708344 0.958197226755 0.903414463811 1.0943290936 1.18689079816 
0.724392110835 0.631000620795 0.727721102859 0.757849659572 1.27188109155 1.3454551619 1.36536943512 1.37291102078 1.25513224704 1.48269411439 1.47888028511 1.02907051746 0.980862218158 1.51987251896 1.22732698745 
0.951455862586 0.734682374318 0.751215728558 0.810766277519 1.052042731 1.18400989863 1.20255502005 1.12893451147 1.08240618111 1.14914687402 1.01290742419 0.789649751719 0.754215511137 0.917088267957 1.10680022853 
1.00665907597 1.01052720182 1.19190792173 1.17260546163 1.06584252818 0.890590872774 1.06668077937 1.2847650947 1.09275821617 1.12045201423 1.17290339879 1.07232204882 1.01059772299 1.11058394581 1.18900242525 