# vtk DataFile Version 3.0
vtk output
ASCII
DATASET STRUCTURED_POINTS
DIMENSIONS 15 20 65
SPACING 1 1 1
ORIGIN 0 0 0
POINT_DATA 19500
SCALARS Image float 1
LOOKUP_TABLE default
0.4001368614135876 0.5351116608618435 0.5289291225804511 0.35722758602638605 0.515804753121913 0.6413203507610004 0.9546701594799349 0.9111344017025718 1.1218424384957926 0.9943836392784404 0.9386961105819174 1.0297930770818866 0.7130796111740398 0.5388067547066462 0.9352365852624813 
0.4747759866093979 0.9632147377230846 1.3147167020076982 1.082212038006698 0.8593921813282306 0.7966307663721734 1.0267826288551831 1.152708690238264 1.169210932530443 1.2767709145405453 1.1759053174586502 0.9330008151003454 0.8403508338140855 0.8602812709560773 0.8835796331548166 
1.0464825165319898 1.3587570122772983 1.5955551221425088 1.0976171144660622 1.0200862188427275 1.1667204328443603 0.9253565782937141 0.9925488034186791 0.9585820693960196 1.4372737852252404 1.362261553463793 1.1198095188323132 0.8817249458024342 0.8210203679779705 0.8252507165238522 
1.069152406324544 0.9591485247988374 1.143275023637681 0.8996002196604226 0.9512396191473858 0.976985323786092 0.74108066463648 0.7742791873308585 1.0143785851044993 1.2011078249796714 1.0933797590479741 1.3953592484036264 1.3314642938834997 1.1259355867438718 1.0033496496760153 
1.2481347977387875 0.7420823984542803 1.0230729793643834 1.0256143194744618 0.9694848154240251 0.9483869984070661 0.9412527170252273 0.8293971175514905 0.9629673457255931 1.285957348888691 0.9710131438407575 1.2991697273750809 1.3955119943571688 1.0855537045308998 1.0022407250614593 
1.1867637218870428 0.8731085763153879 0.9273244630485915 1.053980013016731 1.0715200876361117 0.8253948280768668 0.9869199891690873 0.8061595394748121 0.9935284991605439 1.067326131751118 0.9762439092607101 1.027445721259286 1.2819024076234524 1.1521742074276127 1.0255350728548323 
0.9181790642855084 0.766536605366288 1.079536807699483 1.5524293555330917 1.2742665295422362 1.1237307433127584 1.2328256100323358 1.1456765910408733 0.9542285744540349 1.010498069859517 1.0446852123265615 0.9861510763275829 1.1819196892202721 1.2730229110993827 1.1371414641028992 
0.8269034364577739 0.7463944943393962 1.3163958142377545 1.7898869144528458 1.6562371144258512 1.6926241673262363 1.5019756886379458 1.2547719973775924 0.8957990563253206 1.070896835313668 0.5685546994839252 0.4614747149812788 0.7351135924686036 1.055664669168152 1.0286727377794858 
1.1104486907645306 1.0605627037079781 1.0503543899307726 1.2104816329569434 1.2835072151820532 1.2473021110590026 1.1292170890670048 1.2513116918478253 1.0072973134564234 1.1674210679626031 0.917917416797795 0.769886299881185 0.7646377726251233 0.8010272367710334 1.037697889243905 
1.3609920984838508 1.2069956745449673 1.0863151142936822 0.9246379362783258 0.8496136362265049 0.9519559425887352 1.0770124999484059 1.3420477805747957 1.307381347857189 1.280687968599341 1.3537641851122995 1.2458917047209908 0.9921215714016253 0.7862180209284886 0.7842995463351531 
1.2373325643496973 1.2127146527505448 1.3265957591069817 1.0641446438457431 1.1212390109228547 1.3966944903270992 1.2680755445862004 0.9912361549372872 1.2076248538067325 1.085247510108494 1.3546721951312697 1.182897085212039 0.7402342407704017 0.45989907712235656 0.6531841129170121 
0.8577335872576316 1.0695812455405587 1.2290695068047142 1.0504815347511303 1.1625729887921503 1.1222893445049131 1.0743737646803493 0.7843734967516098 0.8797958853451694 1.0152919637821665 1.0011997805316954 0.8582970619886073 0.670531858968928 0.5862351638205303 0.781320469293515 
0.2965977501545799 0.7872109220402363 1.0284795900592136 1.1474445905403934 1.1313988349595645 0.9439484519483807 0.9543033727883173 0.7853054869221773 0.6109610929634846 0.8589428097971545 0.9665186890811418 0.8069372353352873 0.8394629725904977 0.865663404672008 0.7931085654583769 
0.5158161931217391 0.7787611659670939 1.0022461213231724 0.9259390465687777 1.0122376499067316 1.1579270371216714 1.1695929465814938 1.0164951439837095 0.43653382158702014 0.6620593720716538 0.9239949854757796 0.8120899830409517 0.8332751606157756 1.0427508920405448 0.9821424349801662 
0.7887554036405526 0.8979990446923732 1.0451109334385655 0.7499189866049965 0.7533880666616031 0.7340343476732873 1.1798085264325364 1.0940733679880028 0.7507883527524368 0.8496107628030107 0.9800221663582604 0.8189869599960885 0.8345652146095802 0.7234121178588093 0.8154621424317591 
0.9965057801696453 1.063237141065341 0.9899585969285096 0.8543108767192285 0.8344960718246915 0.4811056756724996 0.8948244403804041 0.9588849572944732 0.7380676498275658 0.906393330861605 1.00493920561345 0.9072300920196242 0.8988003855318639 0.9380572038409698 1.0484469964650276 
0.8917543589806193 0.9963692973053572 0.8590873504645307 0.9755074245288569 1.1637929342836888 0.8350725965987793 0.9180746820025791 1.1212017865383768 1.1287327981367725 1.1912112719225738 1.0423519355053965 0.8646868216308756 0.9388343909086372 1.1981714279542786 1.1512743984154359 
0.9231161603303646 1.1844931276691437 1.4009807756704389 1.4090779900835204 1.3618581259091023 1.1782263718255546 1.0039781354702964 1.13634174681356 1.2600514827555032 1.366122103947372 0.987272215869525 0.6947284431793324 0.9226922683932208 1.0493506184293817 0.9676624262555131 
1.006970704642987 0.8158478457792734 1.149566631348948 1.2364764102965016 1.1919402305683866 0.9659801584478777 0.7807066991920184 0.8863064747750804 0.8243528503424905 1.207912847756543 1.1557035164408394 0.8352048040622245 1.0097723459348926 1.214666637349154 1.1118529550647283 
1.1372724517057904 0.6263468378768171 0.7482747072344584 0.7470086968250735 1.0860470439004557 1.1280032035114083 1.028251668964349 0.888639934011304 0.7412550883657525 0.8984530059238985 1.0354856925593978 0.8479222808959538 1.1590670588165681 1.3101949406043067 1.1159403054700363 

0.7768792395208315 0.8363495517564266 1.0329772952461036 1.045019207624246 1.048196901778648 0.7115165394157614 0.7468027085591731 0.8122201719362798 0.9016218199354825 1.1703284003241101 0.8054347688316099 1.006370758338905 0.9589620170562079 0.8214444687526458 0.7893516258933654 
0.755049096049057 0.9411998945462875 1.2666504438902553 1.1010740204552776 1.103087013812453 0.9832375866133916 0.8742192443220153 1.1266093076552572 0.928087226260124 1.1378098649333632 1.047315322516861 0.980975598770346 0.8809314582886928 0.8170282777548663 0.7473070689107391 
0.8767282977901597 1.0822845690782616 1.4160593800423389 0.9180751323251681 1.1013527645288643 1.2663946210069355 0.9785986936380627 0.9116851989529454 0.6935057856088438 1.1575488559960267 1.3742892631132413 0.9870744701512587 0.6935016187414841 0.4729827645698199 0.6839735167097305 
0.7257707782798747 0.7168620041930562 1.0943868775202097 1.0095665181535876 1.203083860636941 0.9494057670599613 0.5271722552300351 0.5856221073897521 0.9019941335296454 1.0151708284311742 1.091896278453177 1.1330387654626033 1.033467576673783 0.7761059150117072 1.0244461895692891 
1.1015440111135002 0.6607115680049602 0.7879870851408103 1.087752608440286 1.2757274560304495 0.9123231632054735 0.7356715216452956 0.871014385207085 0.8394748488549442 1.0207745541615347 1.0924478312330188 1.2241780377319689 1.0472997542887403 0.8677718720337392 0.9445962182646551 
1.0873670494979122 0.887311748964426 1.0506138184443006 1.1369787968016432 1.118291234872406 0.8402907916331416 0.9426666710603133 1.0924360432917009 0.7505463164091825 0.9347398266689597 1.2279221455747205 1.3354193104100986 1.275614455587193 1.1605774570736767 0.9507312888795698 
0.8477502749790967 0.610398640152889 0.867458563885818 1.138502908755679 0.9573626402521952 1.0288628137731937 1.2493252695417199 1.3915389629234605 1.0034679577495003 1.063573653281415 1.1970373229153402 1.3572405748291656 1.346509712560121 1.1633142097020008 1.0171377664561554 
0.9247838323768373 0.5431817509315937 0.9079734199259406 1.3546807148272395 1.2045718586110628 1.4180847674104395 1.5284308420839507 1.3088689146421775 0.954078095533105 0.9259642238156802 0.6979095797486212 0.7973748444696773 1.0994893935113321 0.878463641655452 1.0404407715181037 
0.9948450136123782 0.7611809599058684 1.0715012420993024 1.2286614415565245 1.211194305414613 1.1575400620903078 1.1739597027563748 1.0572396820032792 0.8778462088872769 1.110333640846327 1.1347701099925558 0.8216835192978601 0.9219079740340927 0.9608874560444264 1.3991436798995127 
0.8864403116072221 0.9395440618552326 1.2131686072905998 1.3499366969854611 1.1014084439640948 0.9633202704447165 1.1449155682700478 1.3048819533788703 1.2530750529852444 1.2640760842048941 1.4255092531297515 1.0933503576774404 0.9885736585375332 1.0425487271060256 0.9261828209971351 
1.4796540252597399 1.334875515479182 1.4209179473403528 1.486261225785065 1.1856669938003594 1.2292822522713456 1.4171531616157675 1.3548002874243557 1.1581967309116874 1.135864171607045 1.4366338414637512 1.3484001428470165 0.8528893069080729 0.7185650733206845 0.5586349066715501 
1.027020455601635 1.1138859515993722 1.2140863648438425 1.3080600072702726 1.14799566499001 0.8418176185159808 1.090515080972082 1.2133076147065085 1.0175619543562695 0.8839266279924027 1.0158218423211351 1.0041384026844467 0.9615756544261908 1.0155894932336864 0.9401616156651676 
0.8609465894384151 1.0108191501122854 0.8159723172218912 0.8639303756831933 1.1533497586445887 0.8835555277046419 0.8334221856709318 1.047811314109144 0.9710221698319711 0.8589231689290742 1.009836896496175 0.8841832314582222 0.9872833948903583 1.246080366532654 1.3381449888640837 
1.0700084028761643 0.9257083611317086 0.7502641356650339 0.8746791256292288 1.0260186245237206 0.930206881128773 0.9412808573148068 1.2721510581250586 1.2408116653891885 0.8756967646154885 1.1491618242152555 0.9963542191704169 0.9887396919053197 1.4063909593506951 1.269959254197038 
0.8334087176138057 0.6994400370994913 0.8634559154927639 1.0266074004623194 0.9124449371829078 0.871637621934689 1.3924512404837606 1.4290155143743088 1.0996195758401792 0.8718560533373716 1.121675191623722 1.1906406604959405 1.1263059994729256 1.2643715991779507 1.1300193841408939 
0.9074471633254462 0.8441798583426373 0.7697003690757642 0.9773646355605646 0.8446364477532715 0.6238751388313984 1.243553580407232 1.1380866407461627 0.6213957265096612 0.7250240335081115 0.72498417948593 1.1106917907776515 0.9509960286780835 0.9747750411998614 1.0579220951705735 
0.9346768522413221 1.0921139164805143 0.8535698593597608 1.145814398134531 1.0561454365375578 0.8100089957969069 1.1670275299282558 1.2167620877476157 0.7569198109914754 0.7152294859368438 0.7636385062029805 0.9868967710306212 0.6340242959976454 0.49539818007826797 0.8616035774113845 
0.7573136889887018 0.86314349167749 1.1437533531172417 1.4131425389563215 1.407817149696367 1.071503804577285 0.9931236260340435 0.9273575968058849 1.0564098390218628 0.9451688136025401 0.6112497026063095 0.5620267313717684 0.8175779327133865 0.767166278613152 0.9535003182876838 
0.6221763981502891 0.6142676612318629 0.5712595408545014 0.7040140258411711 0.9884214930787653 1.092018962673877 0.9947303324380633 0.6732347291352421 0.9001484043160142 1.1495999890551079 0.9062786638046348 0.7558255227312973 1.2817333724677025 1.1281498173325002 1.0276584068804084 
0.9638399984649885 0.7505399576495609 0.7861208910391738 0.9270567516553182 1.1715927574985876 1.088320422471851 1.2255019338625266 0.9771061624939161 0.8017870110743375 1.1700201591914716 0.9595101356130336 0.9529620193166238 1.119799474545506 1.1332792269644805 0.9032415256460647 

1.1285335564921062 1.131138486233164 1.3061680768518378 1.267686338606399 0.9183049333690677 0.6958883017731393 0.9306902703191566 0.6440022651008841 0.9510117161273537 1.3656645949670012 0.9605976209171224 0.784292550436612 0.6341544419767028 0.8715892444041974 1.175984342179631 
0.9184697835524098 1.196194748382346 1.1863720594228546 1.1132003638335852 0.8378315269849018 0.7291992768998906 0.8670104551521551 0.9463009901951197 0.958577825532672 0.9562864663574029 0.8318145697302382 0.8057692585318632 0.536531353513312 0.5753884361437943 0.8987319298929105 
1.1055492367013235 1.1899440692756575 0.8222324305622972 0.7891435837860301 0.9266156161963702 1.1338319936322347 1.265865393046819 1.004837899738832 0.6299846202813353 0.711542117149411 0.9131279812026152 0.7535047844148026 0.8007330946622252 0.6426253983191081 0.747645788413474 
0.8274279829494064 0.6978437334454086 0.6911678533078307 0.9645951429681277 1.348867091605633 1.1794287817738809 0.9350351925547139 0.78207797567121 0.8235489561452534 1.0508979464009738 0.7844735601914521 0.8395582537601711 0.8411662806354085 0.9912763011931208 1.2347792212090034 
0.9205197686866304 1.2033209149727593 1.1081562861738496 1.099564415105598 1.3633742758099074 1.1919156321433364 1.002370089920754 1.0091373410648878 1.1079806040858002 1.2193235959956221 0.9549546924423675 1.0811178194951998 0.723714753667475 0.9072729683227949 0.8989452894238134 
1.109413676376025 1.1066508341443486 1.1462067335527664 1.0402402983318149 1.3385344178973713 1.0816683568958951 0.7983083227144897 1.0974822378072078 1.376015195853392 1.3769796903682598 1.2647112728128547 1.2386825906755312 1.1373007125865604 1.1216195912397589 0.9685551805848984 
1.0244002804949166 0.7437015678972734 0.5317654360934587 0.5884079955529792 1.0118585594834268 1.1562571318137738 1.2035008762488282 1.436638970641057 1.5018042286780169 1.1709512209019857 1.2377600877230612 1.299849385939379 1.2267842252130612 0.9681981381868491 1.195801082262605 
0.8650011208849946 0.6748864367314731 0.687276918160718 0.9015904187034411 0.7814090952665415 1.0543190880919535 1.218563078097694 1.2002005121801615 1.0608595133524323 0.9029307892361602 0.9943728809866379 1.2922214027887933 1.4180176652252632 1.046708883836118 1.2204184916283911 
0.8457285508192371 0.4685715835272504 1.0523744907779977 1.1412735210684597 1.0500061489759152 1.1125863078341323 1.0748681554596033 0.8861731030566685 0.7423688999454385 1.092530290261171 1.2700687918968296 1.3164143152769543 1.2743847164762283 1.124135399566293 1.0070913403745902 
0.770301288122496 0.3884089677699547 0.9339165962170682 1.205357295597406 1.2060266871761944 1.0175943754000525 0.9667843622410386 1.0451829036888645 1.1526374613695438 1.3474565041387427 1.376249732035199 0.9552005903735374 0.8470519482108316 0.8348539252642155 0.7494784079224871 
1.0130395475679674 0.7980117782471656 0.8539838738171177 0.8921830259197214 0.8331675500417077 0.8730405754456012 1.211316220786046 1.3207648450940248 1.3685802782294414 1.4470292967391787 1.409685180404533 1.1273426804900715 0.7526259783821673 0.5804575255798684 0.6147295458256707 
0.8228789214604795 0.9980324017517144 0.9183163324481688 1.0056116886599362 0.9092409756045127 0.7737361079007059 1.1223096817900375 1.3566354126212403 1.3105921407127696 0.8740147464281868 1.2189995710578012 1.1783827952630086 1.1970562102500788 1.0357784641734475 1.1938542519199586 
1.4156132370836507 1.399331616641889 1.00767968725932 0.8529670103787864 1.078234423823083 0.877417812379521 0.9945646439948211 1.4867060495076831 1.265081506592087 0.6880048219150534 1.2365613955009098 1.4974595166430993 1.3220697114167803 1.2672267477335106 1.3445657472101267 
1.416021678230778 1.269840064466797 0.8609909134025899 0.7834192421316348 0.7241996398504242 0.7245883251830285 0.7741953954589735 1.2935288185641196 1.48723409501939 1.0632760442239602 1.182444764885296 1.3185968311942091 1.1739784529868964 1.4859977751256859 1.0512823404937024 
1.2014519233779062 0.9430118736111999 1.0171504234256294 0.9550162125087995 0.7204302771025836 0.8766131580046047 1.2349317107214937 1.2102292783619775 1.2469342913998247 1.1623049700186743 0.9966426043529588 1.0351345956783014 0.9671890685638639 1.3135968225012762 1.1011919875136866 
1.1582433373623087 1.1439559563595363 1.263705329956068 1.0577492108840583 0.7490369426099761 0.7289818866775724 1.3331512344491157 1.0346263318889475 0.721278756202163 0.7627710370514751 0.6101612538951277 0.7258199496589444 0.7683620584273001 0.8229147417321607 1.0025616215561866 
0.7903361167686176 1.235631589986947 1.0093530576648537 0.9517117888207621 0.8448802603047869 0.9530794881208171 1.2664695888627446 0.9989697338185294 0.6042859867571958 0.6041974541732102 0.6881507504695922 0.745795971713101 0.7822544917880406 0.7333970903932712 1.0121930250634121 
0.9258878378141288 1.0519892151412826 0.8192581876068332 0.952055989980562 0.9797820269069951 1.1382846687967443 1.3539130749667567 1.0982384603319228 1.0226230767337507 1.0014596019736872 0.8514218544383573 0.7012502286937525 0.8689444098351161 1.033957582898672 1.0654560379084148 
0.919589785375345 0.9016720144352892 0.6394117652392595 0.7485614761838375 0.8414465680808013 1.196423104548558 1.5006719620148112 1.2392832784406134 1.1354710898255689 1.3664074795036145 1.197295797184223 0.9337481153479356 1.2415959115294848 1.1968749065934807 1.1406780060030226 
1.0433763121689095 0.827586310930746 0.6640723112239376 0.8480620389184208 1.1682804134418663 0.9442672779076277 1.0965138824974547 1.0561718299185117 1.0045087935185073 1.5622882761791737 1.173582718586747 0.98697235417038 1.163685274694073 1.3233457099642671 1.1045305178632407 

1.0398933245864301 1.0812598512918927 0.958133981472986 1.0884625531349588 0.7901909615909939 0.5723614276645764 0.8925896295918411 0.8012291319740822 1.001214673264522 1.1813755656565172 0.8398217429208358 0.6350012666224201 0.7597537893817189 1.0607449149631263 1.2158613409375085 
0.91371422418065 1.3037208840795997 1.273286193401456 1.2292898561489423 0.9318894792286831 0.5615956193683685 0.7377259210855325 1.0360315017288766 1.1482320550720924 1.1458021923022594 0.6986602954805621 0.9368597076737268 0.7959514907647313 0.9606743169582214 1.0536637601444159 
1.0620986000934438 1.3008760568811553 0.9477086198291989 0.9414725220795459 1.0055121825137996 0.9795741626844017 1.193034473098252 1.1719014091581412 0.7882237348283339 0.9242637236047175 1.0382108526083995 0.9810575087951631 0.9016583082649948 0.8747723400869509 0.7980670446666626 
1.0160091255401673 0.9765891674756871 0.8855358370267762 0.9642893955440344 1.3876696876788746 1.0751667743893678 0.9699168707764076 0.9735194319313404 0.8628018958917306 1.1025672884302122 0.9442853539547886 1.057678300944543 1.143933350457981 0.9410302578287542 0.9568043605097565 
0.8537570231486049 1.401754219822925 1.3231729815900488 1.1875775930122794 1.2382661103138082 1.0208368883369214 0.9529649359027328 1.0065274724128108 1.1253718652538796 0.9978560402000702 0.593833852975591 0.8607419100523096 1.108497745066233 1.0831666624180305 1.0407201446563614 
0.9703866296925058 1.1981066624506649 1.1262945800991075 0.86963997861602 0.861574036589107 0.9417167752179906 0.9370355710121605 1.1390012346414284 1.207146178886498 1.083253823781373 0.8459600684102888 0.8050699665482852 0.9322334394565122 1.1305873759883274 1.1895966562766873 
1.1208246799448287 1.1151450239199703 1.01264641347177 0.6520094835302954 0.7450986720464261 0.8487287191234353 0.9416088309931657 1.4200868651850482 1.4029958618292675 0.973504544066871 1.0481270687950304 0.9860963477188975 1.0492726111210648 0.9648658228224896 1.0922281836439902 
0.8018142615668566 0.7904361996892996 1.2806836249775255 1.2611109479366405 0.9877483728770189 0.6852129596007392 0.7698094585833923 1.2940534459713684 1.1839551850114438 0.8184100493025275 0.9616291486263723 1.1618713297343612 1.1780076778851065 0.854917325439612 0.6810441636585145 
1.1480160839546294 0.7434802456888371 1.146379889533902 1.1235768399251949 1.1717036729217245 1.0474742629517924 0.8184972694386832 0.748093672489601 0.5732030081622164 0.7414324189687124 1.1354289481953854 1.1452066971319723 0.9332891482862558 0.9389627417846819 0.7483230866918531 
1.0389122418122543 0.7133677211906291 0.7912188503023969 0.683825019488814 0.9533073068209592 0.8754050807673527 0.5304670327960066 0.7669596706451723 0.891092221015597 0.8012980028278259 1.2828132227245548 1.0463346393024615 0.9543509481567104 0.8337000748058483 0.9161376778880177 
0.8813940640187142 0.7670483459152591 0.8019680650538786 0.838860364037038 0.8750912262021002 0.7123377738568428 0.6750387257704011 1.2136570648963796 1.446493998247637 1.1676490858116564 1.126093898825024 0.9602802414946927 0.8547373270921683 0.7284625722628775 0.7091089001271538 
0.8991710997750249 0.8067366849864621 0.6810815395760261 0.8551325115236612 0.7562352295071934 0.7405763181518626 0.7564166068286695 1.0948600992573732 1.5159318990509465 1.2622634279564444 1.227473482197959 1.0370243111262212 0.8687180779911267 0.9772851949640534 1.0022459496712917 
1.472597698748757 1.2106545948381864 0.8204074016537035 0.5635765179223182 0.861230596826139 0.9368096892418977 0.7851835049558077 0.9157948297433188 1.2079519632375348 0.8608588702227024 1.085531264166729 1.3974351810355337 1.1522350027727037 1.1487824359103584 1.0682350071742899 
1.2260069545714827 1.1452007184733348 1.060245431397426 0.8277524723640504 0.6564502105590225 0.6532796878744487 0.6200526151897838 0.8597144254946819 1.0585508586291663 0.6548926431080273 0.6841869949997215 1.0950531175456117 1.2318562352787055 1.0547163618676152 0.7725869496590794 
1.2675557421103263 1.086982582857762 0.9096192640446816 0.9841394983486641 0.6593974848156394 0.5431323651115814 0.7995935879886299 0.9132169744441101 0.9900516759845784 1.0305481565152321 1.0930453710456964 1.0838418803780012 0.9868919534619415 1.0059491502718565 0.8223655442676973 
1.3448276364118084 1.2302871013836016 1.1197079757831887 1.4129262999511158 0.9888425017902731 0.6445285615115719 0.7536879949102362 0.7657498862156071 0.7858052762630552 1.0455247652390705 1.0785585035407417 1.0080892821980525 1.1152958422171715 1.2903069336356339 0.9733533627802222 
1.3001204377727331 1.4018879744814972 1.2636908825984818 1.3079402703295 1.1452548004349867 1.220673605289601 1.1385447636225938 0.858385362689226 0.6640615952546299 0.7562742482646858 0.8194274809483177 0.9474572906747071 1.0810605219476157 1.3071635241559805 0.9978698426206006 
1.1038054709263112 1.1378482412838145 1.039015933812591 1.0670375190381136 0.8542100390451939 1.1131541240607257 1.438407113055223 1.3424470487083064 1.1734943010666288 0.8948041248540057 0.8194929019002046 0.8808968314567142 0.8426581790298107 1.0065599167467392 0.7480636912680909 
0.9001770058899177 0.8640149600974512 0.7419636537477275 0.966870688839584 0.9562361450199085 1.1251444505896708 1.327951073864073 1.2081264744882576 1.2931862266112464 0.9340739063246726 0.8329827543898318 1.039649655814601 1.3901454157502955 1.0550381576592363 0.864238309994524 
1.0932008801476987 0.8755487345952134 0.4321741667726755 0.8050328690914983 1.1793502581013302 0.9993879465837905 0.9297104658149844 1.0161070519243511 1.2655328894904332 1.2562815251916715 0.9419503575558968 0.7976475484947623 0.9924016200200313 0.9882068711313291 1.1740476403130127 

0.9335311912076221 0.854968702143872 1.265674053211847 1.2927485109648233 1.0744425714878667 0.9868711237861718 1.0506718722096924 0.7727704353694704 0.8388672750649654 1.0374267905099381 0.9780875479665541 0.792628676587177 0.9453764525667733 1.2249538401515632 0.8846569453671461 
0.9236216794016071 1.143063627042643 1.683451163143152 1.295864986715921 1.0122747876684486 0.873956513071789 0.8605171772355447 0.8251113241629878 1.135639334727804 1.390358347400493 1.1765526199181064 1.0566643684691848 0.967719678967263 1.0382373539147796 0.9198783919854191 
0.9928290771500923 1.2273311518989636 1.0992139823776588 1.1676039474676183 1.0709923184254815 1.0059901154879625 0.8193226334306796 0.8608554905277829 0.8921471681064015 1.1234037665462662 1.4417502764938424 1.073334293573415 0.5865192276648328 0.7216606391870382 1.1524798471727935 
0.8838130537668831 0.8776659009315458 0.7025095321440173 1.0427695034395206 0.9962914473819812 0.9995698429187703 1.0287330711412794 1.0205582550374794 0.8034211444164414 0.9558816964592912 1.4002062126020864 1.2059894737122305 0.715942494012553 0.9169994604946021 1.3686254328387932 
0.706044453551107 1.0202474225162805 1.0121311108840256 0.84870661420955 0.6562462353666536 0.9915810472827172 1.342305842946656 1.1188060879565533 0.9765456165117081 0.8638617983093174 0.8517754976410714 1.0016718336343606 0.8408364863094842 1.088569237288827 1.469456046654444 
0.8259489222473254 0.9669998956913795 1.0167850407859347 0.7606950910067436 0.5881796148797428 0.849781812604434 1.4550059871801027 1.1930454378946969 1.1667352074574602 1.0269349133667476 0.9578718893443825 1.1614960846539912 0.9087299314499009 1.0160695363742633 1.2715252950000173 
0.9854850701555742 1.024615083304569 1.2747999503254275 1.174997332957034 0.8950082638569979 0.9586005266030716 1.2607027227189052 1.1584201338110232 1.3669241478915053 1.2476130078418137 1.2976059220490876 1.190875076143157 1.0892120314388185 0.8816838578118914 0.834335051743969 
0.8098844838981696 0.9393968009066866 1.3827313428870485 1.597142881054001 1.3458311581720872 0.9877246845418801 0.9670239441605922 0.9048576147864945 0.9948415509077628 0.9293625727965492 1.0853693491688996 1.074589042678976 0.8064292817450941 0.511606262631324 0.5150465169160297 
1.2353182628746624 1.1496548949903587 0.9450314325378542 1.1371906916466978 1.0144304042825856 0.7787648636874059 0.9656010695952836 1.0083389438405292 0.6589996747096322 0.643788761265556 0.9069765189715993 1.170925300106763 0.7645754493290289 0.6264824039558194 0.6675048955053617 
1.0859872504441561 1.017370083406699 0.8314424582571356 0.7308654748603685 0.9609781197786154 0.8496850606095669 0.8367258447893161 1.0520841338209312 0.9872335484684602 0.6492741583328119 0.7254951446076587 0.8496304220962141 0.7316373518127464 0.8782376755068304 0.8400756252813384 
1.1262785944394322 1.2039555434663278 1.1704371719470503 0.9710442718000462 1.2144887968708347 0.8991535150936635 0.5597148803757905 0.9485504317117929 1.4720153883523686 1.1458315761906712 0.8725279213206125 0.698620694948872 0.7870612887510939 1.1293273742827838 0.9070082876100478 
0.9941030741735625 0.9157057673937662 0.7803323215126647 0.8076410466369672 0.983331133111346 0.7307104762863565 0.6771650720891097 0.843383691626962 1.2886661298565494 1.1281509267341965 1.1539742448262005 1.064621486426375 0.5920585030962826 0.582214202313474 0.7658162482913295 
1.123041096113926 1.0361950856498072 0.8958919286432756 0.9500286595700986 0.9486021167701761 0.7982958509366518 0.7632688894719957 0.8249397607218473 1.0076544807147645 0.6110854328641628 0.6639343006282963 0.8953777925697813 0.7892980728084609 0.8312055155824976 1.102019525752987 
1.2200097027691428 1.154514464360188 1.320469893875362 1.2689099646176436 0.9566409516735932 0.9548641444621718 0.7993893072705041 1.0924334686487827 1.0169314841811083 0.744538047933868 0.5341809679711228 0.7589680062510407 1.0996622043376845 1.0054425434377838 1.1459243075171992 
1.3286646926041585 1.1964893460884092 0.8473586956330214 0.8288205708552729 0.7474421032555522 0.7644125182110126 0.9581613617958089 1.2195638121664276 1.0076267808129304 1.044443974272327 1.2593993616965287 1.3760049421000178 1.1203698649707947 1.0025593979190481 1.1499172269290512 
1.0162263207341404 0.863079847149935 0.735205130384769 0.9935060626681435 0.8236332962868824 0.6794154636424754 0.8800117220903523 0.976179653976129 0.9442046293585219 1.1058190526329397 1.2263741674200872 1.2190087837144366 1.0661665427165967 1.2967685729512721 1.348915458330054 
1.127996473630777 1.1887522260650052 1.2610092856081911 1.2297555588052056 1.1203132323528455 1.0946041547832583 1.0415104924256846 0.9725748493065058 1.2429165183061535 1.119976633199197 0.9462148043100267 0.8541198424859131 1.1051205465336011 1.2605079144811622 0.9475609155995957 
0.9476875602744073 1.2441232310076056 1.2185627252754316 1.1910916778423528 0.9351910733986017 0.9441468103663399 0.8928014050238108 1.0092135175732448 1.110608299728776 0.9260742905283704 1.065213315210292 0.8802810627274279 1.0196398639259887 0.9332682639206911 0.7941666013236452 
0.8548485791075918 1.119027812097398 0.9334652578654672 1.0141081634142959 0.9157075054259779 1.1009879638945166 1.0421492712332856 0.7735525368498878 0.8559073835852999 0.8016421817166554 0.9997697826466844 1.0624931193981815 1.3123393389957423 1.0516769101272396 0.8391268543156224 
0.9397365216454191 1.1697056532422683 0.9418335534892377 1.0419630737369738 1.1530819508951273 1.3217066043642907 1.0205827779189318 0.9409964735303072 1.15894961878806 1.1544765612855334 1.0315405062645868 1.0351020296567313 1.2261205803324116 1.224899062040982 1.113143548332262 

0.8872356312514479 0.7617717743201587 0.9873702710418069 1.127953527282706 1.1029478599692637 0.8973162368185426 0.8472283815437176 0.8297871925781215 1.005194483139909 1.085685229350344 1.227361323814503 1.221614070441911 1.209727214900555 1.43677421491955 0.8273830826083565 
1.027041061046554 1.1127845985427582 1.0858583196101428 0.993739420600772 0.8959477193337136 1.0449220133622115 0.9400818751439587 1.0527533209950928 1.1644995897748445 1.263925472120502 1.392827245045634 1.2786406421522103 0.9641205607359404 1.015452929021459 0.8433141647284462 
1.1562098451912404 1.330638700251068 0.9899668735121174 0.9934492086759797 0.9352602522071225 0.9746996501640683 0.8177208259757527 0.8454012456974139 0.9506425767593039 1.1731267030724448 1.3531872671615777 1.1243269730866339 0.5054778231488046 0.8257328629347107 1.2393337566490197 
0.9472472621286094 0.8540801030291543 0.674659882139768 1.1607565922498277 1.0775790270409402 0.7805437767839412 0.8781689354649589 0.8698920362295208 1.0078490439657364 0.9265297395763475 1.2528877718397307 1.1683037332894206 0.7704023793856491 1.2783319526446097 1.4883201814844311 
0.7840495122126698 0.7998837081710022 0.9320671172179281 0.9824491792342008 1.1311741994809126 0.9979084274298049 1.0938347020929529 0.9968592362063461 1.0953587422232036 0.8853647202823809 0.9957747043426377 1.1828518335923828 0.8452062557200034 1.1587160837060904 1.6594386047246272 