# vtk DataFile Version 3.0
vtk output
ASCII
DATASET STRUCTURED_POINTS
DIMENSIONS 15 20 65
SPACING 1 1 1
ORIGIN 0 0 0
POINT_DATA 19500
SCALARS Image float 1
LOOKUP_TABLE default
0.6735739598062117 0.7898145026191243 0.9463002698177266 1.1300551140999122 1.321952775796587 1.499018292420478 1.6387660662468684 1.7241475642285504 1.7471911614422946 1.7099011668979043 1.6222097276749001 1.4981043096109485 1.3517841530774346 1.1954520050992263 1.0392741072100602 
0.6672640180035743 0.7767232619086013 0.9254384229617775 1.1030952813890171 1.2920671416882374 1.4694798419688526 1.6118697771642885 1.7007527487727208 1.7268723046285084 1.6914655558203653 1.6042729420525985 1.4794971084202366 1.3317184849680883 1.1735071300596593 1.015317833649701 
0.6894921102044628 0.7884960987575195 0.9224588912536476 1.08310703381667 1.2545732056074486 1.4154635287538584 1.5437198402990209 1.6223415105581993 1.6435515366617621 1.6097261736745887 1.5309623135747379 1.4207163416109219 1.2917093322469433 1.1538897056432362 1.0149340674902125 
0.736220991490817 0.8243951417806326 0.9397743293838654 1.0751519243998118 1.2165529519834237 1.3455469809199223 1.4441225800073472 1.4999690800514185 1.509741487826155 1.478862136567861 1.4181236979423875 1.3389077941752419 1.2494182204460782 1.153657129665509 1.0533186977852895 
0.8086951727435129 0.8879247726793865 0.98311041861118 1.0872341626247826 1.1884747110916791 1.2728888265061773 1.3290066907806413 1.3520491294279129 1.345528981069283 1.3192639298520152 1.2846566753166075 1.2495349957786108 1.2151247434324954 1.1766827674098583 1.127463306715887 
0.9131010856625376 0.985287833371406 1.0590938249002342 1.127334139336722 1.180869308807119 1.2115909300636787 1.216394881078875 1.199828678890845 1.1735319701931957 1.1521318605725774 1.1471353255557815 1.161591328410958 1.1881861456458793 1.211965677015988 1.2167260120058718 
1.0551898503557768 1.1199737796747824 1.1700769122403276 1.1985317881784292 1.199615124137682 1.17190426780544 1.1213351609165958 1.0620467449501247 1.0135839577405985 0.9947877756387716 1.0165559953124648 1.0766249443984584 1.1590093010234908 1.2388771865578443 1.2912512853080802 
1.232816383704372 1.2864637385601139 1.3090320947390914 1.2948045444449479 1.2421711258006458 1.1564454559574626 1.0518750641834225 0.9508134181815693 0.8790702060858538 0.8583253382525907 0.8982550772260623 0.9917184729297981 1.1155017188296736 1.2369799563371981 1.3245513512397968 
1.430839609451835 1.466922617472631 1.4577263263110392 1.4000988082525954 1.2968862894991733 1.1592435284280653 1.0076911573520133 0.8700942979291649 0.7759107254674572 0.7479282820308263 0.7943436335118479 0.9045220106448989 1.050722086178266 1.195818552046449 1.3045683015220253 
1.6218379786863437 1.6334386835376522 1.5899126647688653 1.49177803321883 1.3460871262826242 1.1681043281864651 0.9817175115385665 0.8169243724117056 0.7038930758640441 0.6648779027721511 0.7067692489006868 0.8174280661945693 0.9678593157548708 1.1200904223522206 1.2382757623465581 
1.773140026244512 1.7555469065060314 1.678720409573243 1.5473348924148946 1.371768309644518 1.1691902694636211 0.9637508331074509 0.784301575939151 0.6591095097860457 0.6086554991859626 0.6389971052537678 0.7385361204289909 0.8800508988314202 1.0278766256603626 1.1479996799270253 
1.8573463795193104 1.8099617241592099 1.7051775217263625 1.5515300575129136 1.3614097414432775 1.1517247107383297 0.9442651696798929 0.7642166264399004 0.6361029562126406 0.5778933950840516 0.5953166141293534 0.6788604567043832 0.8051824376539337 0.9429856350264108 1.0615660164879936 
1.8616149744354096 1.7881729998021525 1.6640903292836997 1.5008330199289337 1.311417703350466 1.110843520721264 0.9168779217471599 0.7496274773324701 0.6289387862708606 0.5699425917433535 0.5783032371280511 0.6472897207900761 0.7583094117986795 0.8852178100729226 1.001139923664021 
1.7915016503037964 1.6985118031359607 1.5647276648889172 1.403347251885127 1.2269269397065323 1.0477074338935526 0.8788565048452277 0.7350643687022823 0.6313284400183033 0.5798444422370682 0.5861068624141473 0.645994344654257 0.7454178444723162 0.8631165221481293 0.9758607670149922 
1.6677915746092058 1.5619553601206757 1.426255687110067 1.2745925431200793 1.1185060642840599 0.9674078926783011 0.8301422789102637 0.7163804935291618 0.6365521335598623 0.5999014386320072 0.6113591212095132 0.6686846853105061 0.7613852097987827 0.8722306708799843 0.9810895401107166 
1.518106227439171 1.403898757242965 1.2703204202240337 1.131423120316862 0.9977046872829138 0.8761645042298832 0.7719848774648732 0.6904752649258397 0.6379181311783343 0.6206319018533412 0.6425649126106167 0.7025660896080117 0.7927515052781505 0.8989814495412334 1.0035759602718632 
1.3673835460637394 1.245843368560338 1.114314125409813 0.9870054424620198 0.8736639066354264 0.7793566656246999 0.7061557817510027 0.6555176608784131 0.6299436551637041 0.632971887911787 0.6674473545179107 0.7329207871927488 0.8235205751083169 0.9275065778695954 1.0290180266693665 
1.2314745964553828 1.100612149155444 0.9681656055637657 0.8489043085002921 0.7521250726624414 0.6811421861391648 0.635039082469211 0.6115840754290327 0.6097770310519092 0.6307617391569548 0.6766757908439772 0.748030141800816 0.8409522165774925 0.9457574349010549 1.0477774549270502 
1.1161332098386922 0.9725916444861339 0.8354322724124902 0.7204945920824531 0.6366971658562508 0.5853388442907688 0.5621757476580249 0.5611624649749045 0.5780737692549841 0.6123416569541115 0.6663000809993237 0.7422457355451241 0.838756993780419 0.9481045614295877 1.0561612030903147 
1.0207495726194287 0.8618245725047421 0.7172081090118441 0.6041686058119639 0.5310378484906083 0.49653455980090744 0.4925312930252027 0.5089776028550836 0.538793422391578 0.5805878164844781 0.6380376628901837 0.7162591687732517 0.8168682885697702 0.9340544167599922 1.053606335540342 

0.7399306071777109 0.8275084063244604 0.9552736137299906 1.1130755887813635 1.284124578508485 1.4467110412684807 1.5782564127728462 1.6604387880602118 1.6834582330075496 1.6477773877354882 1.5627681637694666 1.4430523266224102 1.3042464451745976 1.1598538725684078 1.0202141834875174 
0.7265276721636571 0.8050163999705237 0.9247498352455242 1.078547171494351 1.2509024788704748 1.4195394134160462 1.5599703560191407 1.6514822340573643 1.682218199961988 1.6513970955563821 1.568012740026698 1.4469124303530934 1.3041840970433158 1.1537972791394884 1.006502906680876 
0.7350467000165773 0.8021563891453595 0.9082207058739974 1.0481521772141815 1.207832899911689 1.3657855419605656 1.4981226749652032 1.584874561359361 1.615113740707585 1.588863786768306 1.515293362921347 1.408376745040231 1.282207144454127 1.1480110899619471 1.0137685627483395 
0.7584844870850103 0.8142784359301073 0.9031081403962891 1.0209514294455135 1.1552563459112042 1.2869530578473012 1.3955572970529926 1.465189183872731 1.4888681433016373 1.4692892951770529 1.41599777423763 1.3405769897295632 1.2522971670566547 1.1562360658610467 1.0544486547311307 
0.7977888252194412 0.8437522320140016 0.9131041253859024 1.0021581237609878 1.1003952187920256 1.1928743566349556 1.2651364240635945 1.3082484953116134 1.3215001694658532 1.3114190064805986 1.2876299268641875 1.257688129153586 1.2235360837287685 1.1813975266109042 1.1251493492351647 
0.8625049477186706 0.8997432829847797 0.9473748429312278 1.0019701607494547 1.0558472502251197 1.0997338840196544 1.1270743122034 1.1375833550324002 1.1378851053426144 1.1385149045757008 1.14848953815343 1.1700601964639321 1.196391383609226 1.2136319638215372 1.206755464518543 
0.9648980225659302 0.9924100945093148 1.0150574704779778 1.0303345216554445 1.0343709883196643 1.0245448296524082 1.0028691607433498 0.9778412382733263 0.9630078188863977 0.9721510582919638 1.0129070061963943 1.0817839657217947 1.1632779795448456 1.2341163891088933 1.2713402908613234 
1.1105197296896825 1.1245230308286196 1.1179295748972184 1.0903535029238367 1.042554509469218 0.9786616722711906 0.9085077911856553 0.8479326507789623 0.815710014327247 0.8275025301469263 0.8890666226035934 0.991828628271782 1.1133593722664576 1.2233450638590329 1.2932328240548312 
1.2904300271520799 1.2852339597383633 1.245430895731027 1.174028043343204 1.0767232514880276 0.9634910969658969 0.8499776439397576 0.7567519303736413 0.7053538380437376 0.7118167799488926 0.7800325100900268 0.8980232426089343 1.039403727247183 1.170294267532706 1.2595704293957204 
1.4797014081241353 1.4498493599524647 1.3751822851601987 1.2629437550897333 1.1233442072545925 0.9704384261962771 0.8229077658383456 0.7029424505869284 0.6322764221741465 0.6260691725246544 0.6868858760400144 0.8016148049212766 0.9433493225971137 1.0783203425155103 1.175756654361178 
1.643698211334323 1.5864189566948221 1.47931881489039 1.333933455463768 1.1638404730266734 0.984944608424326 0.8160773141804426 0.6781795925483075 0.5910652231302299 0.5682559990927186 0.6118271777203078 0.7097749977303837 0.8377190336200662 0.9650277115963495 1.0634928496417637 
1.7496087214816827 1.666387116034135 1.5338808827623724 1.3671222382332555 1.181451368247973 0.9924454228130342 0.8167219653981471 0.6718962105883669 0.574523906513025 0.5361895560614014 0.5592623023571268 0.6344725764348217 0.7419697026776945 0.8560930065259792 0.9524043747778846 
1.7779610767493543 1.6743952839293543 1.526872675048042 1.352526784622344 1.1668085233789225 0.9833055915728328 0.8149729684360888 0.6750453735116096 0.5762736168187663 0.5282854709667961 0.5341628027883034 0.5880439003267464 0.675308829592404 0.775798427862502 0.8691064848386156 
1.728829697660624 1.612728205059475 1.4612852553350217 1.292199736535741 1.1197377854441921 0.9546016982453568 0.8056039041170132 0.6814434929592811 0.5910872668123276 0.5422450964886953 0.5386399891131564 0.577567411116871 0.649219328136076 0.7384473177577103 0.8284796227563035 
1.6201180069989825 1.4986232086338647 1.351994099668048 1.1972967556337335 1.0469167852281909 0.9085064573935441 0.7869621839659714 0.6868253781302661 0.6135508917356852 0.5728945832428103 0.5687790627656614 0.6008403822169827 0.663043549512748 0.7442328679348807 0.8305512423420841 
1.4792268045270718 1.3562213501884663 1.2185363441308183 1.0820586993280465 0.9572031816274865 0.8488642788452261 0.758519639057709 0.6870355991683547 0.6366202386337904 0.6109822639912165 0.6137415040201261 0.6460138244843653 0.7044658820998548 0.7808734115619532 0.8634923071095374 
1.3325020589556336 1.207427654042637 1.077678087128557 0.9581143775904247 0.8574938935371927 0.7783301782898568 0.7190381970355287 0.6770851924771314 0.6515856340378651 0.6441912172013541 0.658004883730689 0.6951766365709773 0.7544116670485624 0.8296158596871638 0.9103650986722608 
1.197528549080427 1.0660905175338198 0.9394173218644208 0.8319978185014788 0.7513607480957457 0.6978063374396731 0.6666831312223683 0.6520381998524757 0.6499833431632588 0.6603480917903787 0.6860094769087296 0.7303296446028434 0.7939473128947603 0.8724245719408887 0.9558639146996434 
1.0813658515780777 0.9377388503903888 0.8078695600575313 0.7067048057060096 0.640864627217398 0.6083107016702302 0.6010081331632885 0.6093889263131403 0.6267169317111175 0.6515423052779274 0.6872802246684612 0.7391916859362141 0.8101559988227168 0.8971395930356552 0.9899776045243485 
0.9844007276776675 0.823911682040176 0.6856396347709738 0.585707216844097 0.529984162300243 0.5138296522532031 0.525455603840583 0.551544381282436 0.5828220334665076 0.6173020039044732 0.6598890385583701 0.7185686682931064 0.7988587017836963 0.8989527474940856 1.0077252346496477 

0.8266142358709188 0.8823884838466424 0.9744459069440566 1.0968337833320292 1.2366755740427218 1.3749606496735272 1.4900641575901608 1.5629616467445042 1.5821842590377448 1.5465696796796777 1.4647977571571533 1.3520821745517555 1.2255302021872994 1.1000400856993622 0.9860646435100154 
0.80882165133622 0.8530533775724594 0.9364482809983878 1.0561991720172381 1.2004647500802577 1.3490729512625235 1.477708547212596 1.5641795745281764 1.594352655941698 1.5654701139102443 1.4857319206783028 1.370646746171162 1.2379326812933589 1.1030943871262138 0.9771337901007349 
0.80629261716936 0.8384726300093956 0.9095258964499261 1.0186666057790288 1.1549951011313486 1.2984325524152083 1.424465959824008 1.5109229575174514 1.544064209578433 1.521623211494242 1.451842628329862 1.3493325273943046 1.2298407835531648 1.1062054621571416 0.9868517405856628 
0.8088721398197992 0.8299501647521456 0.8861113516454999 0.9774990539527535 1.0943009809475188 1.2181237951087858 1.327036269991329 1.4021783375130932 1.4331241062057782 1.4198272375729872 1.3706248410011117 1.297595829875637 1.211663700494226 1.1196973529276857 1.0246307851771053 
0.8161826617157724 0.827716266061029 0.8669444949540704 0.9343161393351953 1.021665367291347 1.1140329222778438 1.1946214433967794 1.2505702721954224 1.2768504012382453 1.2765449443967887 1.257597620364209 1.2278543443647911 1.1910099828916203 1.1455182442142733 1.086930620904456 
0.8394982291712976 0.8423118511410151 0.862197492877938 0.9000254407034507 0.950217485615969 1.0028101078305869 1.0479028143288422 1.0801056964236744 1.100569033502964 1.1154311388994396 1.1314206737715966 1.1509127116785574 1.1691400261229794 1.1752656821121206 1.1571088273651537 
0.8960973849883024 0.8891337955543231 0.8863669991640745 0.8899242734625213 0.8978892751101742 0.9062696401378776 0.9126155641558128 0.9189616712525196 0.9320390321701898 0.9601599249717995 1.0080696907098434 1.072385720175106 1.1402628230192837 1.1925511852541026 1.210578712070546 
0.9987227281823631 0.9787854106650549 0.949482639268714 0.9154318466038002 0.8792056321435736 0.8428653709831981 0.8106337318966443 0.7905168909234126 0.7931630783469584 0.827791821692635 0.8968399075930275 0.9920586678619432 1.094512948376484 1.1793155840675889 1.2237171256815693 
1.1456562194707067 1.1083736278180205 1.0493635928652363 0.9768576321535737 0.898136802664281 0.8204212622849143 0.7527274887441088 0.7066558021573179 0.6946217685038479 0.7255807251486576 0.7999890097056995 0.9066498228158815 1.0236362711597988 1.1237924478854056 1.1831630577161558 
1.3168909464146257 1.2586291193656867 1.1692557966905364 1.0611365210064152 0.9456839130114032 0.833593678395282 0.7362141365425465 0.6661213122456027 0.635486663674205 0.6522729873294264 0.715868587645464 0.8145722781096028 0.9268611118838869 1.026765635155551 1.091704916026591 
1.4788989779397719 1.3988017785777842 1.2824047944125825 1.1458381462975984 1.0033418289562812 0.8670268837928908 0.7481589153913899 0.6580814255467521 0.6073053646484495 0.6026136903964782 0.6435027026830112 0.7200627662586075 0.8140151277205788 0.9032159000568741 0.9682105410896066 
1.596122633765304 1.4972666007128583 1.3614844855368986 1.207451088799858 1.0505121298696891 0.9022511821775879 0.7720183254244762 0.6685395005921161 0.6000052004296249 0.5722227147522441 0.5858058335087691 0.6341860003549931 0.7040067266300498 0.77831791639209 0.8415241347122605 
1.643874977071138 1.5328291837087957 1.3882969969040881 1.2297760046882882 1.0720149106191732 0.9246508148521674 0.7941382315594295 0.6860954380416542 0.6063554858441457 0.5600585354677776 0.5494302772479419 0.5717404455103828 0.6188917194695672 0.6792123470655441 0.7408166837406956 
1.6166454847327727 1.501420285174774 1.3591308449090196 1.2083948736557053 1.0620811356729094 0.9271702307315692 0.8070411059659072 0.7043718449677456 0.6229097802009907 0.567275141659444 0.5411701734295629 0.5452314603622939 0.5758764946934762 0.6258652166078748 0.6863174295047908 
1.528203720471737 1.4153395557031985 1.2835809096470476 1.1494769408713652 1.0233788429797346 0.9095331192522876 0.8085525101788692 0.7205972770369076 0.6475823314466392 0.5934800431537327 0.5628676854467649 0.5587201150145157 0.5806905312112999 0.6247134930580067 0.6839914642628611 
1.4040586887054496 1.2960706846467698 1.1781185598039303 1.0642993994977261 0.9624456509951899 0.8743537792924554 0.7982605027615117 0.732106221753688 0.6760127038426527 0.6329820349235642 0.607757797397241 0.6046170193966744 0.6252257092582355 0.6674931610211865 0.7257768093236038 
1.2705271862197374 1.1648373418546671 1.0583187998851638 0.9630425892817847 0.8847582970239408 0.823136918678243 0.7741882153007045 0.7336033018444542 0.699532781068796 0.6737057356573392 0.6605992707477185 0.6652031731528439 0.6904385838330226 0.7353103596373844 0.7944592173665462 
1.1459619654140765 1.035835358617192 0.9339954894772361 0.8514791911650479 0.7925568728417264 0.7549225587519948 0.7321624510292203 0.7173921930476922 0.7065444356015272 0.7000102716750046 0.7020698860624088 0.7184646644342588 0.7531853697344071 0.8058055490351658 0.8704125584030276 
1.0380082124860446 0.9151433046723064 0.8094593728089918 0.7321582566689322 0.6866003852419424 0.6684590082919316 0.668491626332972 0.6768261500775964 0.6870502552752755 0.6984799359964241 0.7157323751477306 0.7458275908896904 0.7940411047831241 0.860225457091535 0.937125791329405 
0.9471435433754797 0.8048578201081831 0.6879273913870386 0.6088122418275318 0.570448200852557 0.5664289611811357 0.5843608337225148 0.6111462200874412 0.6381275050413334 0.6640322475544406 0.6945255114925938 0.7385524697860413 0.8029784508501879 0.8877567709130127 0.983678726084913 

0.9012364524079738 0.9286790890979503 0.9858373478979493 1.0712631733250957 1.176750129024387 1.2869553722977467 1.3821291320336484 1.4432146456996313 1.4573987306760747 1.421901077388112 1.3445199866978963 1.2408295746803364 1.129274549396511 1.0261100718948262 0.9419220922030612 
0.8831479988028482 0.8974640078838606 0.9456347674757214 1.0292196990628861 1.1406866056114908 1.2630612917368587 1.3734542871711373 1.4493227486087563 1.4750596172710497 1.4463383474319023 1.370631879952907 1.263965389723372 1.1454630883003496 1.0319345900882337 0.9343819682624448 
0.8751397477518016 0.8777922614712395 0.9155476353031364 0.9916551425589275 1.098974608337298 1.2199944432233911 1.3310570025660424 1.409234988390923 1.4391193310630612 1.4168568828047094 1.3500435831618 1.2538959459772339 1.1456170121338656 1.0393739562587263 0.9436695097088933 
0.8641047629792027 0.8571949750371658 0.8834677115532512 0.9467408867461335 1.0403489088075522 1.1477174337090812 1.247020928397267 1.3180087519611936 1.348131682147256 1.3354969107313779 1.2876999087094085 1.217459500004988 1.1373048667062307 1.0557294328122953 0.9762364704888233 
0.8475152170846512 0.8329630063086451 0.8464960345277338 0.8919835267512801 0.9638126641780757 1.0479837065414894 1.1268072978563484 1.1850459188948483 1.2147087145336077 1.2164406313439073 1.1971555661772526 1.16537976270615 1.1267904668475133 1.0821729696416202 1.028653069712919 
0.83651163086186 0.8151559263641515 0.8140083161064934 0.837261764882209 0.8813316872266463 0.9362282008476153 0.9898827327001618 1.0331670424644441 1.0630473509482714 1.0823387367607507 1.0963319383610126 1.1082198776250651 1.1158972103911533 1.1120061011677693 1.0874121628485143 
0.8510930861489976 0.8221223847355398 0.8035658673943975 0.8008759186060114 0.8135617579234297 0.8364893976121281 0.8635406342007543 0.891387577700314 0.9211256579666094 0.956730881905708 1.0011212269158185 1.0520424908743777 1.100282328924116 1.1316527766242483 1.1322828473818234 
0.909444483945533 0.8705409222528496 0.8315953610461692 0.8005135643327436 0.7806513426524929 0.7717274257495954 0.7727297635824005 0.7846601714540139 0.8111281642788372 0.85612116930839 0.9200310025259573 0.9962449547152044 1.0706124130945636 1.1248080985116893 1.14264865289564 
1.0167266170543914 0.9650562429580084 0.9036519283061 0.8437911068870058 0.7927769731479285 0.75430566138918 0.7307671174775612 0.725419500775641 0.742610111605641 0.785532072451212 0.8526635149008568 0.9351016384634676 1.0168497892130706 1.0787588861963715 1.1049317007294808 
1.159211781628728 1.0929920890426548 1.0094005227151588 0.9232725205088572 0.8451707112298111 0.7812565583033494 0.7352965392559727 0.7107980440042767 0.7114828683387281 0.7395609066544109 0.792826592557227 0.8625732883085947 0.9341361154216591 0.9905903141787008 1.018411932829781 
1.3070996037628655 1.2271054990845838 1.1250166639142618 1.0184826198887618 0.9199739942637036 0.8363828587565888 0.7710780262324691 0.7264175541627386 0.7048696905868285 0.7080601578501337 0.7345386052490341 0.7779965054912346 0.8275462563772846 0.870553297030739 0.8970172749991301 
1.4249948769671907 1.3352365501011714 1.221846850588988 1.1037555865618884 0.9936694382559668 0.8976974765224403 0.8176960467708189 0.7543248171009903 0.7088918397970451 0.6831404082344014 0.6775275193554239 0.6894764291643757 0.713065705718204 0.7407000839158198 0.7660454959242354 
1.485159116481754 1.392202577098805 1.2769819844972474 1.15781179818303 1.0460747680981712 0.9461206728778455 0.8579541727378892 0.7807287431705917 0.7151137036741891 0.6635854509261806 0.6290009129069049 0.6127246252312671 0.6136549853759931 0.6287703726006757 0.6547681306460836 
1.477301966687083 1.3882538997202913 1.28059332275344 1.1703174682999782 1.0664022874763552 0.9710878877975347 0.8827799066568502 0.7996914922860702 0.7223921155225735 0.6543135257826628 0.6004485868460625 0.565335442741811 0.5515544937628227 0.5594056173136739 0.5875768587218609 
1.4105465128270347 1.3303624375325436 1.2368360539573398 1.1426203304231994 1.0538572513135747 0.9708113694685065 0.8907604409547478 0.8114719378087617 0.7336338402637109 0.6613694512348127 0.6009940901089842 0.5589368237164186 0.5399190478759726 0.5460657613725088 0.5769429882010119 
1.3072498227684006 1.2364416529698308 1.1586918792391137 1.0832018861320907 1.0134661937985685 0.9481142016199071 0.883600490138507 0.8173415687031433 0.74991142515729 0.6855191439294297 0.6308448229831619 0.5929803105395332 0.577427879983465 0.5868387585557732 0.6206535575784978 
1.1924012409877638 1.1261835087431193 1.0602859412885661 1.001220040283676 0.9504297799621274 0.905186013011284 0.8610309900850617 0.8146368132655409 0.7658839877800128 0.7184094026388036 0.6785701643878662 0.653389169696195 0.6483378047779113 0.6657061694888813 0.703939512379882 
1.084217947185766 1.0136105939981064 0.9512350981011005 0.9022560708765898 0.8668285457449656 0.8409458062650266 0.8187736135071938 0.7955191491494428 0.769698122819543 0.7439448096558905 0.7241130568910283 0.7170737986870234 0.7280624175150777 0.7585193903957738 0.805115167651191 
0.9903823419975687 0.904989392263145 0.8359688321003501 0.7886785936586909 0.7627410057893942 0.752819325639612 0.7511026274012419 0.7505950284923159 0.7479464097948563 0.7447126225173714 0.7465351329679853 0.7605369892815026 0.7919199330345562 0.8410515784047653 0.902149803783345 
0.9108874897352266 0.8023528115392174 0.7177213902487323 0.6639553798268228 0.640861050203934 0.6417978773687887 0.6565758824736155 0.6755403828708059 0.6932809842036074 0.7104677058680199 0.7330140746667863 0.7688249054194461 0.8233762341476778 0.8958901370551148 0.977694642885792 

0.9384707578132047 0.9478584553843127 0.9792238689079674 1.0345647354327263 1.1099586907627947 1.1940031403544236 1.2695638592603107 1.3184674265805727 1.3273502901046323 1.292275452118508 1.2202165023290963 1.1268295143649354 1.031447796164504 0.9512534605307946 0.8966987063609942 
0.9237328723640482 0.9199386841807392 0.9427310969054664 0.9965869054477496 1.077773687876848 1.1729766963711716 1.2619378342487826 1.3233136625771835 1.3414757581914363 1.3115271653293212 1.2405791147086958 1.1449278198090576 1.0444307203604457 0.9563619064202912 0.8909578551809095 
0.9163041890864287 0.9026073899407485 0.917499679147284 0.9665332449139458 1.045759852328163 1.140886516885526 1.230715379369757 1.293633606956854 1.3145411601324355 1.2894232697461345 1.2258450432044157 1.139427709167903 1.0480084729084593 0.9659529466637058 0.9007101441699988 
0.9006960521494934 0.8802917700436229 0.8877534658481299 0.9286440418997002 0.998839822339026 1.0843716967090429 1.1654027539872645 1.2227240217637112 1.244015864663007 1.2272811963477355 1.1802009029051193 1.1160146324124982 1.0479938678420901 0.9849814827016756 0.9297055465977471 
0.8717846831124735 0.8469463116689204 0.8467048705572464 0.8762708959428981 0.9319168149175403 1.0014258090737131 1.0682292444164596 1.1173424785069286 1.1403960076671016 1.137565147906824 1.1157516474043208 1.0841751596712017 1.0496935184577008 1.0141376275150367 0.974786441582084 
0.8388551159836044 0.8104293934912491 0.8012869244352354 0.8167218639117149 0.854352154789907 0.9049067314058383 0.9561464343931992 0.9978882778716069 1.0256137318813923 1.0409432758317032 1.0489253237244958 1.053750601359797 1.0553039795734929 1.0484968737415596 1.025836696978015 
0.8220202875761736 0.789412291444458 0.7694997555192852 0.7686739891701008 0.7868840718566076 0.8184186425050602 0.8553615681659184 0.8916594099035231 0.9255115302636079 0.9587992687826348 0.9939647757254456 1.0302252419135611 1.0614683898741046 1.0773550635147249 1.067464332212272 
0.8423455667137834 0.8040516872613964 0.7715030661147733 0.7533131778531345 0.7523868372179697 0.7664204661923285 0.7908513316506601 0.8222175316849071 0.8598281728375868 0.9047528962812569 0.9567996743974311 1.0114429114789592 1.0588653439185776 1.0862420988876305 1.0826441299732794 
0.9103980530493534 0.8649957860817162 0.8189041785653599 0.7836603646200286 0.7650949350301578 0.7634494981731569 0.7759828721256036 0.8000505318001275 0.8346491570514011 0.8795513431548877 0.9327514393405096 0.9880984609488743 1.0350470426039142 1.0613533085779734 1.0578579460322985 
1.0189913486216482 0.9663068678030352 0.9076890906551252 0.8574801974212335 0.8236806105322216 0.8077870710477273 0.8073370262975655 0.819132624190079 0.8411319587914509 0.872105116922864 0.9096813610914801 0.9484853149120057 0.9800715222918892 0.9953110522693267 0.9883515652820296 
1.1439672600907302 1.0859797246913456 1.0183734513326204 0.9572547547522782 0.9114913134655532 0.8825219863058366 0.8671048593469147 0.8609372480352026 0.861086609769551 0.8662426558135923 0.8752674233066678 0.8855445623805958 0.8926595477082081 0.892000510586266 0.8815263122456447 
1.2528877009263426 1.1938950815254592 1.1232200536741828 1.0570049008604063 1.003494743802813 0.9631053700009482 0.9315026265378092 0.9036008538116944 0.8764067014465281 0.8496684391999355 0.8246885244873148 0.802634648717551 0.7837443615241318 0.7680021691123774 0.7567122149652504 
1.317556916516807 1.263303403705422 1.1967942368990245 1.1322789260387118 1.0761050281597715 1.027248089293333 0.9806559964344539 0.9313581337876468 0.877361401621682 0.8203496450141898 0.7645037580514044 0.7146545959136509 0.6750398981798881 0.6492233082167362 0.6407445835988529 
1.3244299311014949 1.2802731197297974 1.2246199485922933 1.1682589699112818 1.1148804769653475 1.062119734941406 1.0049401563423974 0.939459379732457 0.8654742944943425 0.786879162276511 0.710329777705684 0.6432674407446783 0.5924318385532054 0.5633519707858009 0.5604622269572863 
1.278159698631912 1.2468106702207056 1.2060133788642582 1.1623271591418942 1.116648570630327 1.0656679926244728 1.0050146601664167 0.9324563065582608 0.8497525213073144 0.76260996593117 0.6791608134612345 0.6079753055032205 0.5565672830797173 0.5307718024422158 0.534669257772548 
1.1971298804537884 1.176822651055236 1.1505027811567667 1.120711401475937 1.08594944063129 1.0423613778483638 0.9864476232836022 0.9175000304126061 0.8387311361881127 0.7567909480223881 0.6801339283300915 0.6171212556657637 0.5746421332948047 0.5575333847417935 0.5685067689802566 
1.1038721969259915 1.087817956115475 1.0706919530516603 1.0520957077322626 1.0288585607030416 0.9967647070412398 0.9528164604713006 0.8970438987454522 0.8331282034945414 0.7676791301963485 0.7085947591797629 0.6632450307285718 0.637133607997174 0.633301029447743 0.6522902721980187 
1.015617881895369 0.9932077912077764 0.9760713410071686 0.9624920793852337 0.9484639972467944 0.929343914932421 0.9018395779240076 0.8655662807945464 0.8235736662620071 0.7816674781001205 0.7468249090918577 0.7253098587682665 0.7211155748843491 0.7351274228101758 0.7650614391165438 
0.9396829354260822 0.8992414271925162 0.8712650931021664 0.85449064919564 0.8449016870144547 0.8372592248093681 0.827100089067519 0.8125155756998736 0.7950433625223549 0.7793034577362831 0.7714641508096548 0.7770484140256716 0.7988173416926075 0.8354209825956196 0.8812313836897677 
0.8753443899755372 0.8075762626829702 0.7591975618037544 0.7309980347741585 0.7197614971182321 0.7196424095862154 0.7244353472626328 0.7299876042250354 0.735834641876964 0.7453468973931906 0.7642075245016257 0.7976898509034731 0.8477075996778415 0.9107617677880182 0.977639227915138 

0.9295811701749576 0.935966500803758 0.9567825946214712 0.9952905850856216 1.0504261063977194 1.114291284607571 1.1728638206991184 1.209971209275091 1.2129892492966525 1.1778466094811089 1.1111508538695571 1.0284600786982458 0.9493258906149376 0.8909993831880266 0.8630994361455246 
0.9199196483647823 0.9147151345525352 0.9282100378895489 0.9652720419449327 1.0244675608931555 1.0959342312290254 1.163030379865864 1.207368111023174 1.215227226712483 1.1826561351178704 1.1171009857015304 1.0348873769046332 0.9556027059937603 0.8956127249276757 0.86311569843719 
0.9172499064929786 0.9050062412261018 0.9133660961765596 0.9474606803439581 1.0050633185086384 1.0751585038205267 1.1404448953087725 1.182922744875372 1.190247467288195 1.1601406006717627 1.1010047927037498 1.028559439404452 0.9599973866711354 0.9080930684424746 0.8775026902238277 
0.9045896323643079 0.8891818273127939 0.8940468693348257 0.9236912254542192 0.975152898532468 1.037377085239775 1.094319258745422 1.1305253920289995 1.1367349451755846 1.1130245568059323 1.0681572952053195 1.015546844954335 0.9677358029454893 0.931825490958569 0.9076797005842218 
0.874289844929731 0.8580284785953206 0.8599280278625238 0.8837396154802514 0.9263417917316688 0.977801629493171 1.0247307836172428 1.055391025735787 1.0641236868103663 1.053010242858837 1.0300409938376691 1.004776425529812 0.9836711776425429 0.9673128922659529 0.9507978281995554 