# vtk DataFile Version 3.0
vtk output
ASCII
DATASET STRUCTURED_POINTS
DIMENSIONS 15 20 65
SPACING 1 1 1
ORIGIN 0 0 0
POINT_DATA 19500
SCALARS Image float 1
LOOKUP_TABLE default
1.1523286539632003 1.1750148757388388 1.1838451860674843 1.1727314365974832 1.139162304519099 1.0854403216490698 1.0186605598245557 0.9493850582176914 0.889339665474655 0.8487401586496608 0.8339603041358566 0.846156516169975 0.8811932868116338 0.9308522753507783 0.9849622785686165 
1.1049092146144255 1.125114986424582 1.13477456490922 1.1273797458979846 1.0997236304144846 1.053264387228686 0.9942412810283184 0.9324717875702851 0.8791355666342905 0.8441398801003664 0.833777600970583 0.8493012221866745 0.8867732020061403 0.9381947204270139 0.9935675958124243 
1.0631295533512874 1.0832114746647146 1.0957871056567816 1.0938863483467562 1.0735866727681942 1.0354928190291335 0.9849813280172309 0.9311154144400107 0.884515687466195 0.8547683289828732 0.8480786444584664 0.8658000027825093 0.9042127389669924 0.9555731300274327 1.0101046535391542 
1.027944144879895 1.0503511731883952 1.0678545720090642 1.0729849998142842 1.0611045301246613 1.0319874792473105 0.9901798045483824 0.9440219986927836 0.9036020130982838 0.8782066057728796 0.873974312151642 0.8923844978927532 0.9299691466134964 0.9792839938500126 1.0308281525440304 
1.0000242290986978 1.0269699852620997 1.0510608844800258 1.0643092148832505 1.0613893278325879 1.0413011656413014 1.0078271682144648 0.9686501553859572 0.9333814336088064 0.9110542718982904 0.90777974383773 0.9252014932094456 0.9601456882723928 1.0055173689332246 1.052148377689147 
0.9799155344476213 1.013099342890444 1.0448674219507672 1.0667251764325867 1.0727191925056823 1.0611621156213062 1.0351673528018484 1.0018473963468488 0.9704095168710265 0.9496906085180935 0.9458202746763622 0.9606481489335813 0.9913385080107157 1.0311957392726112 1.0714407649197257 
0.9681002299755539 1.0085106800110515 1.048344653931713 1.078651778066519 1.0929444467090588 1.088960728640823 1.0692563669702158 1.0404693735574062 1.0114770449978647 0.9909733715269299 0.9851459028111609 0.9960844278154626 1.0213281422275804 1.0546247439230636 1.0876352310288673 
0.964934779434948 1.0127568206926774 1.060315531164485 1.0982995427140918 1.1198113906160039 1.1221443229069088 1.1074119498255497 1.0818671276948404 1.0541170872443582 1.032747965966887 1.0240251298755685 1.0302944794627886 1.049491547767798 1.075839092838096 1.1014794326595663 
0.9704744999253474 1.0251063292967963 1.0793917018264536 1.123795006026291 1.1511569395986077 1.158461592065624 1.147486501875815 1.1241675905310546 1.0968735807370407 1.0740865559196324 1.062139123987715 1.063622275117737 1.0768671828111307 1.0965862924481518 1.1154313947700878 
0.9842339527392993 1.0444051725334331 1.1039224709989144 1.1531972494399279 1.184969460140874 1.1960431528395556 1.1879434296158684 1.1663240578250993 1.1393075356607159 1.115235337388604 1.100459082390818 1.0977713562711031 1.1058721116296009 1.119958154053279 1.1332041233993415 
1.0049596459856143 1.0689292070740049 1.1319080395627212 1.1844479833758492 1.2193495207585587 1.2333470199289929 1.2277637694536097 1.207964335788429 1.181771955573382 1.1573066467255195 1.1408508419601686 1.1353215111053276 1.1397337202251636 1.1497430952351353 1.1590459430005655 
1.030500007898917 1.0963028265060264 1.160944384608276 1.2153169467255323 1.252429529354933 1.269028114704406 1.2662451247915487 1.2491039642118538 1.2250301913531554 1.2017993125719717 1.1854996227126908 1.1790649750518427 1.1817480907191635 1.1896200484327033 1.196885086332435 
1.0578436368911635 1.1235495781603313 1.1882626530420914 1.2434052919516438 1.282317624128329 1.3018026374356406 1.3027715850485841 1.2898128246575906 1.2698167892152998 1.2500574495031334 1.236275924119791 1.2312930503536612 1.2345043259563844 1.2423397605710105 1.2494885826974826 
1.083362320295866 1.1473110302529128 1.2109018272662766 1.266251045344454 1.3071179555832253 1.3303698073460968 1.3366292108604036 1.3299227696996438 1.3164416900572964 1.302781148082527 1.294167275237017 1.2931671195998597 1.2992156077534722 1.3090382508454597 1.3177811389521783 
1.1032473519857038 1.1642271572699139 1.2260155078945658 1.2815477223569816 1.3250509102725023 1.3534286107077276 1.3669196840760924 1.3688438838641215 1.3645196423257646 1.3596836586493453 1.3588810003696974 1.3642870836967913 1.375274809861427 1.3888017215110064 1.4004413642911069 
1.114077158026761 1.1714253042066147 1.2312715368544356 1.287448598280771 1.3346610175937936 1.3697932535288229 1.3925916969742431 1.4055239747624233 1.4128728845873368 1.4193544045410134 1.4286859498651108 1.4425307700149173 1.4601105744028766 1.478557877285219 1.4938460683044048 
1.1134133799450794 1.1670270488421814 1.2252679107721591 1.2828954417703935 1.3350671536990641 1.3785774190638707 1.4125746333471114 1.4385486456392287 1.4596150914010346 1.4793439310828584 1.5005146406422583 1.5241881948683442 1.5493672616221081 1.573313758751826 1.592376779844503 
1.1003020500996121 1.1505632332543927 1.2078698077341268 1.2678911479547694 1.326188374303352 1.3793931750798762 1.4259710004289046 1.4663467642347014 1.5023872902339832 1.536444859756835 1.5703007500402815 1.6043641389648307 1.6373785774086733 1.6667043071788465 1.689045462475467 
1.075562838025077 1.1231933156185123 1.1803766323625822 1.2436366778209544 1.3088753811468385 1.3725017893641822 1.4322495553735837 1.4874453645563301 1.5386894294640734 1.5871099866105163 1.6334887160451026 1.6775799285466841 1.717858806398124 1.7517678705500748 1.7763474967484476 
1.0417831375858246 1.0876565483210974 1.1454554656150466 1.2124750377749853 1.2848937628267736 1.3588629298399462 1.431382993946956 1.5007126364674277 1.5662389290990975 1.627930002066162 1.685628135516739 1.738476964220994 1.7847041761057802 1.8218317036793432 1.8472163810990865 

1.1242544547012776 1.148155670017141 1.162504758583188 1.1606977583882232 1.1389262732357297 1.0977140621944157 1.0423184070024392 0.9818230225219036 0.9271259989446581 0.8883512850053434 0.8723879567005824 0.8812344081531206 0.9116016367656729 0.9558764680253504 1.0041659176072333 
1.0763064218758212 1.0983212873783712 1.1137739105741353 1.1156185446499989 1.0993479652800255 1.0646545154552376 1.0159682858735375 0.9616742171573572 0.9121896308993079 0.8774163676079311 0.8642680185408155 0.8749566476435106 0.9065093153676456 0.9516361378193343 1.000691697803045 
1.0363276235070855 1.0585506588499642 1.0767609594058039 1.0834641830474352 1.0734809709684803 1.0457163348208343 1.0038200789905307 0.9555176879444179 0.9107724358187242 0.8792783248407455 0.867979157063663 0.8793033393358897 0.9105988420829915 0.9549095043610273 1.002854639685696 
1.0048612939148684 1.0294568520794998 1.0520250763455015 1.0646146893873052 1.0614118549773992 1.0405988986334966 1.0051189534949403 0.9621068153767267 0.9211277274700562 0.8917092014108499 0.880854685951277 0.8912317542830891 0.9205310779191185 0.96215508365152 1.0070175536496202 
0.981768352434514 1.0106707545649714 1.0389089620019132 1.0580759769497705 1.0617758950825777 1.0475508445711776 1.0177298394432581 0.9789442129964364 0.9404342096736448 0.9116174417285531 0.8996001027402191 0.9073243238380069 0.9328572450523733 0.9699963667765474 1.009990691019938 
0.9665101958769935 1.0011817956670352 1.0359407422380578 1.061945539086942 1.0722880346328667 1.06396627692112 1.0387971284120614 1.0030012385183436 0.9655695767617664 0.9358676820945699 0.9211488512474931 0.9246676694379058 0.9449059173728165 0.9760988431784504 1.0098784204779896 
0.9583987337769224 0.9996737179119958 1.0412518157509194 1.0739062795525864 1.090304545649302 1.0870045233794547 1.0654116588675322 1.0314205835806574 0.9938365262310768 0.9620174533683393 0.9433962571237257 0.941569303438443 0.9554667134643641 0.9798034299290667 1.0066437220124005 
0.9567546108670041 1.0047814897480527 1.0529223319398096 1.0916466216236143 1.1133012497520824 1.1141086193849272 1.095151409001892 1.062061764151987 1.0234967730608928 0.988824700433365 0.9656665818902008 0.9579708769652197 0.9651365522605467 0.9823923428667222 1.0022799844049577 
0.9609451751292096 1.0152257528396165 1.0691965547119735 1.1131366699151508 1.1391877450942784 1.1433341561591268 1.1264024536628954 1.0937938207480653 1.0540179705737707 1.0164344193061945 0.9888276261376923 0.9754811993949134 0.9762630856259348 0.9869359297056924 1.0005549297734122 
0.9703106873514982 1.0298200186225768 1.0885515578705327 1.1367343391521634 1.1664247721281478 1.1734518835262557 1.1584229577045964 1.126500418192213 1.0860039725992312 1.0462226405964596 1.0150411498974201 0.9970292852456618 0.9924992226708483 0.9977494460157428 1.0063718443127385 
0.9840210142942084 1.0473831131556923 1.1096438828747743 1.161140795238646 1.1939617927864505 1.2038420418850695 1.1911721592298945 1.1608260691102616 1.1208463020407553 1.0803466444672365 1.0472103895684524 1.0262119971221049 1.018057064828365 1.0195619148766462 1.0248637855208516 
1.0009268238864304 1.066615639498603 1.1311897831816258 1.1852603722800845 1.2210524435338348 1.234243514773533 1.2249755206363586 1.1977449279221326 1.1601901275328923 1.121107500710231 1.088243852277766 1.0664682570336739 1.0568052018503846 1.0565517433968021 1.0603845303529011 
1.0194732619720663 1.086007914755422 1.1518481748833618 1.2080382972380548 1.2470280172207717 1.2644471738675263 1.2601265816664737 1.2380651844515622 1.2053408996929957 1.1702641071018807 1.1402867881486602 1.120242041378372 1.1113804661229745 1.1114267261042774 1.1155777569099667 
1.0377288332459278 1.103835900068173 1.1701687024145868 1.2283467118808158 1.271109569297749 1.2940257493633491 1.2965306472554472 1.281987371285335 1.2567427967486982 1.2284416521126742 1.2040733312699636 1.1882949458701257 1.1824800128276642 1.184716342951877 1.1906911551215749 
1.053551215794346 1.1182740642865237 1.1846428791107169 1.2449675955174837 1.292319150304818 1.3221733629932477 1.333476204009469 1.3288146968964782 1.3136381186047732 1.294752873981627 1.278524598863683 1.2692977925209088 1.2684643388056247 1.2744048727420894 1.2832585879899656 
1.0648726211928343 1.127617199727231 1.193861031645437 1.2566869055226109 1.309516431635093 1.3476927384868058 1.3695830536363074 1.3768740489393756 1.3739741276289585 1.3667042596107732 1.3606680114495293 1.3597769114335212 1.3653443641503014 1.3759730240911536 1.388209733966833 
1.0700500229083936 1.1305667471371375 1.1967414255951545 1.2624771226377391 1.3215481368099833 1.369126624863688 1.4029312841678068 1.4236574971164022 1.4345707574230877 1.4404019329632645 1.4458915829035854 1.4544255184458872 1.4671574030117789 1.4828451650433214 1.4983945726018355 
1.0681999949334737 1.1265110701213543 1.1927704005163395 1.2617154438630966 1.327464429631115 1.3849926088816193 1.4313331788145418 1.46614714800614 1.4915106772896038 1.51101538267589 1.5284862184106065 1.5467265672231378 1.5666704288013862 1.5871715053523041 1.6054421860727297 
1.059431375125178 1.1157208200730526 1.1821812798006395 1.2543700927847246 1.3267371217876782 1.3940561001909133 1.4526803503542114 1.5012509599486652 1.5406728148093798 1.5734122270142685 1.6023803584970784 1.629782015126994 1.6562960008866199 1.6808211614943724 1.700820768755058 
1.044904387880385 1.0993931785082336 1.1660087282472964 1.2410915753050578 1.3194137781960196 1.395570018967455 1.4652866295744729 1.5262601179258666 1.5783087124377846 1.6228515365213894 1.6619426325354993 1.69721285516686 1.729074877136454 1.7564311071544214 1.7769363576910782 

1.1027019877623525 1.1274839550955678 1.1468627491767593 1.1543552607137606 1.14529342423607 1.1184827827169856 1.0769693681791153 1.0276369441297175 0.9796925953075338 0.9424298131130991 0.9228837030644608 0.9240415897994528 0.9441254570759691 0.9771609012478489 1.0146787801601607 
1.0566423517738044 1.080028971332764 1.1004946536512366 1.1111272558341034 1.1066164552745472 1.0850246414594094 1.0486772381292995 1.0038725685047256 0.9594489568184603 0.9245839045447213 0.9064348542268296 0.9082901013174907 0.9287607738309451 0.9622488786214061 1.000559067706274 
1.0202760023691724 1.0440000368198477 1.066697131304677 1.0810562567541329 1.0811986624130863 1.0645399906868 1.0327840414251124 0.9917295969296245 0.9499095255494768 0.9164229461074022 0.8985637709860227 0.8999175652254964 0.9194700236338309 0.9519806755939112 0.9895100053606103 
0.9936810956388107 1.0195590893757855 1.0456382346079467 1.0642295278648173 1.0689591160870142 1.0566989451373061 1.028642104806048 0.9901891952318974 0.9496485473912146 0.9160974057136922 0.8970000915220564 0.8962564028251583 0.9132335990237892 0.9430522178803167 0.9780332772394843 
0.9759201744601249 1.005586619729603 1.0360169575815696 1.0591642275919475 1.068232811626618 1.059654477630132 1.0342233615835417 0.9970448140246414 0.9562865938535715 0.9210660558402278 0.8990606976525588 0.89451429976115 0.9071994581174079 0.9326212348102042 0.9633876010544153 
0.9654434080226039 1.0001456529850856 1.0355846614004838 1.0633832561907455 1.0763981635211683 1.070718969112439 1.0468424152242135 1.0096690165614337 0.9672977959455508 0.9289390994023448 0.9025224106103282 0.8926676619250307 0.8995854459983638 0.9192030787453885 0.9444591501876828 
0.9605149926648294 1.0009908427994216 1.0417253756347589 1.0740539922725612 1.0905609837616468 1.0870805860361052 1.0638933826427386 1.025760017277225 0.9807563719037568 0.9382156126400758 0.9063412182767359 0.890152627135201 0.8903304547934453 0.9032682187818077 0.9222892301203399 
0.9595752476694346 1.006019185496727 1.0519769525089826 1.0885592005137759 1.1081536162955845 1.1064097927094556 1.083444794130875 1.043908549784137 0.9958618031474997 0.9487558228686119 0.9110622133113331 0.8882040880144892 0.8813539229868206 0.8874128905352955 0.9001457446515836 
0.9614734182489212 1.0135825056545027 1.064400566633187 1.1048976503939363 1.1273398422116436 1.1272428559962266 1.1045788032601624 1.0638737375312806 1.0131365806574832 0.9618900093606642 0.9188323229634167 0.8897673784808278 0.8763630739822648 0.8760591459068553 0.8831135407419574 
0.9655415778970562 1.0226207620119578 1.0777488808659919 1.1218592320671088 1.1471683200950364 1.1490866666788242 1.1274240255874548 1.0865254067848467 1.0342648022131258 0.9801454260682545 0.9330121971415563 0.8989954264115111 0.8802382745851163 0.8747331196602262 0.8772714688228729 
0.9715195817857062 1.032619738149784 1.0914327758681428 1.1389740740120464 1.1674771961301609 1.1722541238208368 1.152901058719717 1.1134844247876519 1.0616178765469635 1.0066536961631023 0.9574668137024593 0.9204284044681619 0.8981109015750871 0.8890527233244804 0.8886032812049915 
0.979375319560325 1.0434363259707324 1.1053313503878397 1.1562848482565253 1.1886066542631855 1.1974973758643617 1.1822610290241595 1.1465564003546356 1.0975789135070673 1.0443670262324853 0.9956797470173947 0.9580166204309202 0.9343089016783763 0.9236125800435098 0.9218406006491707 
0.9890856451199802 1.0550605059171811 1.1195201425819508 1.1740254420590701 1.2110131720947672 1.2255453460071974 1.2165378373461913 1.1870946098855981 1.1438170856328478 1.0952494521301688 1.0498710526525943 1.014178538225762 0.9913715473481703 0.980974558943711 0.9794500823231392 
1.0004468221389855 1.0673900487430936 1.1340023050918684 1.1923010100570521 1.2348921797030865 1.2566649597971016 1.2560467687124302 1.2354379830026474 1.2006702441736294 1.1596124952210767 1.1202973048583647 1.0890791762829783 1.0693224763348348 1.0609536458401645 1.0609517376066044 
1.0129690487482392 1.0800814538225856 1.1485160051727235 1.2108530841031588 1.2599035668494762 1.2903512610025483 1.300044908739045 1.2905488778614296 1.2667683569044113 1.235733734857098 1.204875935123983 1.18027204522532 1.1653423029339915 1.1603354980172784 1.1626966730757817 
1.0258819227908649 1.092512974721842 1.1624629137362286 1.2289633182624815 1.2850616823698338 1.3252151308247266 1.3466278313997342 1.349929248524218 1.3389786503858927 1.3198394032915073 1.2992129899683014 1.2827794303285063 1.2739088983388838 1.273084655904896 1.2781517186030573 
1.0382441490358476 1.103860596139954 1.1749654401039527 1.2455091228067228 1.3088071423453704 1.3590882185850206 1.3928825534517983 1.4098336429269107 1.412687428786663 1.4064606823439467 1.3970369759339003 1.3896050710335484 1.3873892853080219 1.3910158758010724 1.398650694221816 
1.0491202874794059 1.1132548900164854 1.1850242438940968 1.2591443513621687 1.3292330153743204 1.389314759541766 1.4352613435737362 1.4657365729178529 1.482367428424359 1.4891026037453758 1.4909668156734006 1.492595778041598 1.4969878615322734 1.5048213435920275 1.5144931819962393 
1.0577679222308962 1.1199643482592347 1.1917216566615956 1.2685481445257163 1.3444032790800007 1.413160421323762 1.4700965795440992 1.5129628060827716 1.5423265012451948 1.5611080727358098 1.5734831934919074 1.5835085198088654 1.5938955881174919 1.6052876176911446 1.6162151515810832 
1.0637754091694611 1.123544679206558 1.1944071539240229 1.2726718036763378 1.3526843004248574 1.42824730319653 1.4941522119264423 1.5473613500635 1.5875031641071908 1.6165676270007765 1.6379399540861237 1.6551072049900646 1.6704538270251148 1.6845075758438606 1.6958305615584282 

1.0916839758292625 1.1170353631775796 1.1404867433336054 1.1562291068035293 1.1592173258374459 1.1467709689736565 1.1196118702437752 1.0819904960825806 1.040809986616348 1.0039556559990586 0.9782869731436139 0.9678686612870431 0.9729653864901775 0.9901108491744798 1.0132480323436717 
1.0493714129750114 1.0736191333028389 1.097825783854249 1.1158072488775272 1.1219910412035485 1.1131078896576034 1.089327925096959 1.054477001747765 1.0152258153980092 0.9794470969336783 0.9541921435421657 0.9438660914452499 0.9491375861605736 0.9669111458187039 0.9913790231796297 
1.017631971725868 1.0420838691935987 1.0676533965234634 1.0878475660403626 1.0966841188960545 1.0904484062167517 1.0689034389675065 1.0355758914798754 0.9969968558936104 0.9610808517211618 0.9350878636242793 0.9237488319857802 0.928099274835738 0.9453648150220869 0.9699340445020745 
0.9961522108555805 1.0222427727290753 1.049874503344014 1.0722940428056345 1.0832140750071009 1.0786098486429543 1.0579781861565114 1.0246729282877591 0.9851841437192578 0.9475334926720219 0.9192231261664299 0.9053175898005292 0.9072100290881585 0.9224297495424513 0.9455436604853945 
0.9833651407207753 1.0124275296461107 1.0427723727640754 1.0674223322495338 1.0798743761385565 1.0759115443448444 1.0548879038382295 1.0200955364458688 0.9780715167593323 0.93700643774182 0.9046831824383651 0.8865221364426144 0.8842881152437525 0.8958270503644085 0.91590061340901 
0.9769466434372478 1.0100427836074795 1.0436123303938376 1.0704851410637874 1.0840155983925044 1.0798877281861907 1.0574067553982691 1.0198840738121122 0.9739657046248922 0.9280546299625864 0.8902451716152615 0.866339612500565 0.858503468301435 0.8649361803290659 0.8806398600084913 
0.9743807096226159 1.0122058932188724 1.0493379668653953 1.0784467552442534 1.0928013743914122 1.0880502826786471 1.0635051197589274 1.0225359171234487 0.9719205256609069 0.9202863416112074 0.8760494891153193 0.8454125297959468 0.8309752618858768 0.8313419823092151 0.841821472724185 
0.9734838914010333 1.0163460197274734 1.057219910958695 1.0886554002555475 1.103879145468993 1.0985353162035425 1.0719532551356932 1.0275518403583455 0.9722158444753848 0.914768074548695 0.8639263198825152 0.8262935769783571 0.8049312547372383 0.7989034539729769 0.8039018521200939 
0.9727942638503954 1.0206538806638563 1.0653377390546397 1.099326802942763 1.1158355783649085 1.1105035517452775 1.0826443042255938 1.0356646851177547 0.9764804763821354 0.9140352270006046 0.8572914967514788 0.8132266857504574 0.7853753649508977 0.7733093702270201 0.7731785857877933 
0.9717633195109346 1.024311460983328 1.0728187429169345 1.1097610931057247 1.128361310548741 1.1242256801377897 1.0965778830966189 1.0487047385584582 0.9874291277488488 0.9216962042583242 0.8606183343847686 0.8114909215399622 0.7783105365820663 0.7611886245450638 0.7567976869574939 
0.9707328498900607 1.0274806351357029 1.079812870853639 1.1202765796960104 1.1421167068085207 1.1408562074099926 1.1155228597490519 1.0691380937631365 1.0082691846674177 0.9417064550811168 0.8785830304989074 0.8264257313626323 0.7896556875409223 0.7689332163420209 0.7614987825673243 
0.9707232663685414 1.0310799528242152 1.087238830513027 1.1319043647244125 1.1583547919481996 1.1619670911028526 1.1414481463745023 1.0993860562696587 1.0419055912129027 0.9774610028686547 0.9150519340196093 0.8623243103519344 0.8240601135496762 0.8014515338620151 0.7923274218148587 
0.9730955003666836 1.0364191202131243 1.0963803592985704 1.1459345273840662 1.1784059732036054 1.1889614792444538 1.1758588140858182 1.1410805438037053 1.0901163284538313 1.0308947462067048 0.9721152264888208 0.9214127880548848 0.8838435439880119 0.8610875072132187 0.8515539725599215 
0.979168485079024 1.0447830622516774 1.1084354655546096 1.163428655641161 1.20315219724195 1.222508635390184 1.2191921788182967 1.1944232971673987 1.152878525932338 1.1017812590565952 1.0493663986594841 1.0031207376986266 0.9682705219727998 0.9469141710413581 0.9380039420449674 
0.9898750283279941 1.057058369636581 1.124121366017492 1.1848111914434245 1.232612377564513 1.262130633111648 1.2704122759106555 1.2577939287225668 1.2279952995071763 1.1873834009429718 1.1435819030666403 1.1037960396058155 1.0733081255712524 1.0545437725754607 1.0469319691526286 
1.0055218686775973 1.0734758808946911 1.1434157170565946 1.2096257213670065 1.2657292792726338 1.3060334596763665 1.326896134330196 1.3276992668940442 1.3111130792296493 1.2825410529114913 1.2488800791799997 1.2169351711207987 1.19192822547694 1.1765038433163113 1.1704752095504563 
1.0256900789015655 1.0935099875359189 1.1654771671430244 1.2364994567786782 1.3003990067667148 1.3512193093120661 1.3846421667584305 1.399086001924728 1.3961415691109331 1.380196999044807 1.357348246974425 1.3339048902583421 1.3149166459390402 1.3031274123624068 1.2986195811416699 
1.049277544548766 1.1159366625991023 1.1887448816319774 1.2633103678394768 1.3337295578624064 1.3938559566660427 1.4387638384081374 1.4659654453504216 1.4760097575858384 1.4722784964341695 1.4600396426031605 1.4450415070979865 1.4320605999087879 1.423814732326755 1.4205231662136009 
1.07465442979584 1.1390175382246528 1.211177796557156 1.2875080372486511 1.3624668602930936 1.4298264469250217 1.4841747760657222 1.5222383527990413 1.5436273758528638 1.5507857908914042 1.548174370979893 1.540946388864457 1.5335194045108334 1.5284599636238654 1.5259808195144084 
1.0998823565696014 1.16075435089911 1.2305684652689197 1.3065105693664667 1.3834953261761944 1.4553486473047519 1.5163359656779387 1.5625710540405744 1.5928840493626568 1.6089020733293689 1.6143430716079887 1.6137630714051565 1.6111533326183536 1.6088101198429459 1.6067927174499563 

1.0919947836793722 1.117654341040359 1.1438939552880623 1.1659713925266177 1.1789298476496932 1.1789827842763305 1.1646999939561584 1.1376195277145773 1.1020618338978299 1.0641564448925682 1.030336224032005 1.0057305757787163 0.9929368250917627 0.9915471781423353 0.9985839883665099 
1.0547591004750956 1.07935858186993 1.1057389493594831 1.1288781018789122 1.1434548692826785 1.1452955924017227 1.1326256888702995 1.1067413871286065 1.0718674572017441 1.0342018092701237 1.0003960344346443 0.9759030625137824 0.9636776904263035 0.963620149626178 0.9729321278558467 
1.0280134587072054 1.0524252450076497 1.0790510946083511 1.1026874102673232 1.117802880614295 1.1200178306201471 1.1073928073022712 1.0811362758459482 1.0454895404649918 1.006781431423168 0.9718954722988195 0.9465788644986818 0.9340833445807025 0.9345385282410146 0.945241925181687 
1.0112249559689195 1.0365052747863828 1.0636655552671206 1.0873931322240584 1.102075997190454 1.1032871859523592 1.0890834562620553 1.0607269169625622 1.0225826128568114 0.981177142415119 0.9436539174170009 0.9160506442016999 0.9018908971745191 0.901498410264109 0.9122311485280461 
1.0024829234398474 1.029682193963886 1.0577541251320013 1.0813265602091375 1.0948063821357912 1.0938441101477467 1.076619527353245 1.0445594488150611 1.0022375884531298 0.9564344303675788 0.914584342353467 0.8830294395551749 0.865571187687712 0.8627339602639329 0.871948835945164 
0.9990427567356215 1.0290677391794247 1.0584598302690877 1.081819360843045 1.0936397137771574 1.0897315377457586 1.068477749241172 1.0315357998804098 0.9837353572362985 0.9321416318866559 0.8845012995578974 0.8474817164885616 0.8251906936756696 0.8183943529537069 0.8246513281735284 
0.99797207456403 1.0315114506471568 1.0626470933331982 1.0859725461384548 1.096103944118405 1.0890483907330202 1.063417507771594 1.0211099450478915 0.9672094041614888 0.9090593186531326 0.8547182414086 0.8111947016839329 0.7829421775736422 0.7710329992038715 0.7732387021935971 
0.9967769981783128 1.0342859635923172 1.0676161531906398 1.0913702784431898 1.1002952353886215 1.090584745753334 1.061047861262828 1.013775258937402 0.9540474085102892 0.8894343241240151 0.8282748100006722 0.777918614695119 0.743202687252183 0.7255799910195743 0.723137511539404 
0.9938942384748287 1.0356209766951987 1.0716459240053582 1.0965980539719822 1.1053400943201468 1.0942010042987538 1.0621028231951128 1.0112216575404664 0.946922489380926 0.8769029378471568 0.8097140187248678 0.7530224320714111 0.7120734821517093 0.6887715096955119 0.6816240195615366 
0.9889643532019948 1.0349943367121193 1.0742710925033112 1.1014729743351688 1.1115478197023863 1.1008757443719523 1.0683637572310767 1.0161184593896708 0.9494293080200968 0.8759792591365403 0.8044270008172247 0.7427029682280396 0.696463852755029 0.6681201657488769 0.6566935073677403 
0.9828464641170153 1.0331403936520451 1.076257516726118 1.1069583663013653 1.1202379125178399 1.112423089768643 1.0822490799730855 1.0315649197854668 0.9653903012967507 0.8912180453402524 0.8176787103000696 0.752884052204907 0.7028778172371829 0.6706058361296857 0.6556738144261747 
0.9773854120620328 1.031792686006372 1.0793023315806454 1.114801939464459 1.133297722720728 1.1309538419951446 1.1061667462761084 1.0603266326945522 0.9979736153797253 0.9262168175126203 0.853501566914416 0.7880133545254909 0.736129540531535 0.7013283506379546 0.6838367527132445 
0.9749884230217201 1.0332284128421407 1.085538680544111 1.1269920267216835 1.1525815033898925 1.1582097934494002 1.1417782596954953 1.104026284639064 1.0488106683128926 0.982663575740406 0.9136801059454778 0.8499942794693081 0.7982363211109741 0.7623788841093507 0.7432684285730028 
0.9781008751217669 1.0397162107705746 1.0969591927901754 1.145159299992112 1.179292058608481 1.194926443346977 1.1893433270405875 1.162471192591612 1.1173080164830549 1.05963547190166 0.9970405874817967 0.9374729411269623 0.887712239717402 0.8521528377554127 0.832217224117035 
0.988683943848865 1.0529805364562357 1.1148812781375037 1.1700559930713275 1.2134850698224207 1.2403712273592173 1.2472981282398594 1.2332751351496958 1.200314075578932 1.1533103381533354 1.0992068949636211 1.0456388214701793 0.9994159110315294 0.9652498096904707 0.9450542906506375 
1.0077893351480112 1.073784497930161 1.1395607056095356 1.2012216290235558 1.2538055455164403 1.2921651547992878 1.3121716917666792 1.3118738888269736 1.2922335308517403 1.2571759720249958 1.212898414234115 1.1666043237468062 1.1250057433171645 1.0930008122649348 1.072871910205142 
1.0353009916869067 1.1017022596102928 1.1700228688668401 1.2368999174260527 1.2975134462168296 1.346434729123938 1.3788749522778203 1.391955134343414 1.3855950944647528 1.362727198639254 1.32874401279203 1.2903214186861942 1.253945076701518 1.224549391561303 1.2046307391071749 
1.0698771113416634 1.1351099587268498 1.2041327616467434 1.2742164244132548 1.340793450177804 1.3982717901205457 1.4413208144175829 1.4662405490466224 1.4719895241858088 1.4605470534564713 1.436488812138908 1.4058937647036767 1.3748988513854186 1.3483132453383653 1.3286691432077622 
1.1090864842564279 1.1713800983760483 1.2388759515871177 1.309573084763782 1.3792855908769792 1.4424162504610178 1.493266908643895 1.5274879429745045 1.5432223714246676 1.54159448565628 1.5263961230941647 1.5030691894547759 1.4772920565521126 1.4535849116356183 1.4343244531180437 
1.1496993872940546 1.2072279496364131 1.2707840296353248 1.3391748116143196 1.4087311540067455 1.4740333944096826 1.5292291132280789 1.5695381031103928 1.5924839299802076 1.5984809917795726 1.590609752965145 1.5736639086397508 1.5527711500747947 1.5320062570790989 1.5133980558952018 

1.1017777626465648 1.1276233161224485 1.1552720700446328 1.1812322204896852 1.2010297630846258 1.2102593766073677 1.2057822227127653 1.186713437651333 1.1548785636819772 1.1145647820903846 1.071605812503634 1.0320503606506666 1.0008025234263234 0.9806398294630365 0.9719007438553084 
1.0704448317247905 1.0950327724775604 1.122009946273164 1.1477346325850104 1.1675621016938704 1.1769239246066063 1.1725543242760272 1.1535044792562035 1.1216198697845114 1.0813006215860992 1.0385778107560006 0.9997521243757982 0.9699844104111043 0.9522506429390788 0.9469651449539728 
1.0485804896281352 1.0723957576068894 1.0983989784834955 1.1229221807659893 1.1413304531223076 1.149098323418495 1.1430337385983762 1.1222931257051467 1.0888615640735138 1.0473135520845358 1.003881220534936 0.9650713601813549 0.9362195588408531 0.9203981996807616 0.9179917867538367 
1.0356585990915503 1.059423539421808 1.0844139992240782 1.1070266196975238 1.1227818884230407 1.1273687794903449 1.1178385883856694 1.0935981519349554 1.0568781118617543 1.0124881997712891 0.9668796162165398 0.9267489277499547 0.8975679426595246 0.8824578749362666 0.8817286614487057 
1.0297688093349522 1.0542883813059616 1.0784315052058764 1.0987183716849462 1.1109284336857699 1.1110888809157173 1.0966160245008387 1.0672699711064642 1.0256018044808888 0.9767019658706191 0.9272618257295203 0.8841735785971065 0.8530463181702347 0.8370556035102003 0.8364529393992496 