# vtk DataFile Version 3.0
vtk output
ASCII
DATASET STRUCTURED_POINTS
DIMENSIONS 15 20 65
SPACING 1 1 1
ORIGIN 0 0 0
POINT_DATA 19500
SCALARS Image float 1
LOOKUP_TABLE default
0.6068104951500384 0.6613956593948681 0.7436053870266199 0.8509698228594548 0.9781892667486298 1.117288822682029 1.2581726591457754 1.389538553598177 1.5000403825859752 1.5795329699081888 1.620213044258613 1.6174870228063059 1.5704468524083293 1.481907064031419 1.3580324797324623 
0.672893203360457 0.7268952255154066 0.8040671800369492 0.9028207659919532 1.0192038050625936 1.1468413206811832 1.2772443447433455 1.4004886761956317 1.50618918614712 1.5846319006422092 1.6278910123384365 1.6307590747856087 1.5913547907688796 1.511334353252579 1.3957037547432565 
0.7446373591415382 0.7965471790502312 0.8669755269972416 0.9554515886519807 1.0595657197550636 1.1746706182686926 1.2939349006051954 1.408793497732169 1.5097553288892147 1.5874522505247732 1.633762153317433 1.6428244025847678 1.6117894064418827 1.5411983967034595 1.434959949938114 
0.8183871309261723 0.8669718862026475 0.9295873661564172 1.0070220438601911 1.0984594604086766 1.2009371182091804 1.3091635609282344 1.4157757089424492 1.5120237485240637 1.5887794958472234 1.6376972098163836 1.65232760822088 1.6290006830123716 1.5673446107264781 1.4703820149869666 
0.8900068766933894 0.9343131560282988 0.9887016920432069 1.055250038290927 1.134635637079751 1.225375802345122 1.3234537433664668 1.4224410134588839 1.514118625482098 1.5894925977549743 1.6400191452625692 1.6588171549504125 1.6416570049262065 1.5875693125572004 1.4989991349237655 
0.9553105909028 0.9946025441690272 1.0409172910506008 1.0975357243559993 1.1663929766891274 1.2471469588634219 1.336680200616975 1.4291605979010296 1.5166640852965405 1.590242360725651 1.6412287173606797 1.6625337466440135 1.649696768256133 1.6015215524530917 1.5202184245077968 
1.0104593678079403 1.0441301361248083 1.0829354727224043 1.1311687158710155 1.191678525289734 1.2648326907495622 1.3479761010850098 1.435508408547515 1.5195706474765829 1.59120027781871 1.6417200468682154 1.6640874492152298 1.6539543299540065 1.6102615351337994 1.535300741911005 
1.0522724609731136 1.079773428211983 1.1118719804218449 1.1535997773593936 1.2083070089093169 1.2766000657465462 1.355839805398786 1.4403102594726995 1.5220202998161576 1.5919661189842675 1.6415906227806025 1.664146221156186 1.6557040172591164 1.6156432830882146 1.5465762645722174 
1.0784250644604292 1.0992509279152491 1.125543910889585 1.162746367965759 1.214275326592349 1.2805156402566338 1.3584367650032694 1.4419132652517987 1.52267507078852 1.59167994808702 1.6406175801363876 1.6632394821460856 1.6562626895329209 1.6197024180468858 1.5566221859384335 
1.087535141469679 1.1012853319117388 1.122702862751269 1.1572927960249118 1.2081253938153944 1.274960322162809 1.3540455145044277 1.4386302437259126 1.5200765851570215 1.5893272277073796 1.6384188479512254 1.6617334123795624 1.6567520337091963 1.62419830754183 1.567599868784249 
1.079164864022002 1.0856777046643775 1.1031928047281174 1.136941823443152 1.1892925715138865 1.2590657241457204 1.341558329560363 1.4292667157660137 1.513150739381238 1.5841681635797227 1.63475776768836 1.6599730974642721 1.6580586843093532 1.6303945520808143 1.5808801928287397 
1.0537739367843293 1.0533051373148958 1.0680186766829798 1.1025762805918515 1.1583713748926678 1.233079700985538 1.3209257318057968 1.4136091421599408 1.5016954027663658 1.5761790380235166 1.6298988097132194 1.6585271855824288 1.6609610542054711 1.6390814370114795 1.5969931857190804 
1.0126600967218384 1.0060580874313758 1.0193185513239738 1.056296966989501 1.1172370495641215 1.1985734914662043 1.2934354059099977 1.3927498167883825 1.4867196620120438 1.5663757456740046 1.6248939637032564 1.6584295889115297 1.6663350937304489 1.6507698261797867 1.6158453452988426 
0.9579081153204082 0.9467305312178725 0.9602381634679694 1.0013164657535678 1.0689807434468137 1.1584261319736275 1.2617414440226482 1.3691487849219666 1.4705245935009956 1.556904143112435 1.621682858176806 1.6613015786234069 1.675322165847148 1.6659369146139356 1.6370781463284665 
0.8923477339985115 0.8788688361802391 0.894712318862209 0.9417063337414525 1.0176448919401184 1.116560153885934 1.229605300523772 1.3463825839699495 1.4564650145582032 1.5508268909380383 1.6229257745630772 1.6692605927296262 1.6893487473764588 1.6851923261545982 1.660410403566217 
0.8195001515401648 0.8065777553519273 0.8271639858538934 0.8820154793212487 0.9677795511716757 1.0774493353334167 1.2013671100833614 1.3285942530983745 1.4483997492570162 1.5516035972719724 1.63155054815984 1.6845748122676771 1.7099285560173194 1.7092606914332613 1.685821673407618 
0.7434790393696178 0.7342780715703806 0.7621393975133929 0.826797755853763 0.9238739135556197 1.0454656765346309 1.1812238525975887 1.3197258596016943 1.44991054061459 1.5623359930976304 1.6500683197767727 1.7090929661182397 1.7382429355494642 1.7387364842048627 1.7134886678628418 
0.6688108046070401 0.6664129341616428 0.703906215639447 0.780103824695783 0.8897439458798957 1.024169599152187 1.172437285675159 1.3226695106929731 1.4634309388513995 1.5849156608027584 1.6797819345977554 1.743549807047256 1.774568405596694 1.7736428238907531 1.743466830491856 
0.6001518146202207 0.6071095087962168 0.6560507532689245 0.7450031387990521 0.8679716283877335 1.0156668107896327 1.1766193942647938 1.3385030564328546 1.4894620036535096 1.619252652307423 1.7200573815881208 1.7869011312503842 1.8176821394832432 1.8128981718372081 1.7751937453562765 
0.5419053860563137 0.5598174530542467 0.621117540032296 0.7232039701925498 0.8594901300209301 1.0201525101390185 1.193240036382106 1.3659745851123617 1.5260520018461516 1.662768021336022 1.7678400981731137 1.8358632167853548 1.8644097329920237 1.8538439020980761 1.806957822425725 

0.6005960000363383 0.6434269286859285 0.7141026275222873 0.8117719960789536 0.9326177867464912 1.069792735110139 1.213792934158863 1.3532635938027786 1.476148728457463 1.5710267094147605 1.628433884455907 1.6419775361551334 1.6090771368237156 1.5312400117425393 1.4138584526359024 
0.6753860294214985 0.7170401832437144 0.7818511163399589 0.8698106120046539 0.9784370950640533 1.102508661669348 1.2341960372363925 1.3636299096794193 1.4798514115808725 1.5720166710544836 1.6306739778485784 1.6489165934019705 1.623238001985376 1.553972613457435 1.4452795128203313 
0.7540573442268231 0.793439146564053 0.8510677917410059 0.9279624092377405 1.0231449904746661 1.1331445805017957 1.2518754805787755 1.370965315187202 1.4805180443246582 1.5702081154596548 1.6305349968812664 1.654036569358282 1.6362704929036274 1.5764200349565907 1.477452052838085 
0.8328009474400222 0.8689554956647052 0.9186301438016778 0.9839826226276758 1.0655733150616404 1.161636485432643 1.267717736274033 1.3767919553584678 1.479876888346126 1.5670555428604844 1.628738768559359 1.65695480570656 1.6464531037861456 1.595452203530391 1.5059334550044619 
0.9072688485290294 0.9393970977156402 0.9809246080897127 1.035166102490279 1.1041130671733934 1.1874923124507735 1.2822044831733903 1.3822871750445036 1.4794370593924833 1.564009764242468 1.6263210475737142 1.6580179758273523 1.6532840119490149 1.6096847225422795 1.528538133766248 
0.9729698638132185 1.0004067331519808 1.034119502815547 1.0784969761598355 1.136720471773406 1.2096540130468352 1.2951492948026595 1.3879282182395039 1.4800827624438875 1.562103587092393 1.6242436435226528 1.6579631875827259 1.6571984325552989 1.6192447953290308 1.5451325164137732 
1.0257010768795478 1.0478842825109629 1.07452913252793 1.1109177951745428 1.1610700430435528 1.226529707147006 1.305617819169469 1.3933182479030117 1.4818257965365635 1.561648433216868 1.6230453519460326 1.6575239016486334 1.6591212215878692 1.6252561726396304 1.557036507162517 
1.0619591889560094 1.078419504786893 1.0990267979044321 1.1296926373784117 1.1748498083805892 1.2362135348663847 1.312071428487804 1.3972547983309176 1.483797070441827 1.562141265069278 1.6226497609118842 1.6571187156174174 1.660015019140563 1.6292283018983666 1.5662437063546246 
1.0792833352390971 1.0896801129721156 1.105451393785454 1.1328143614374113 1.1761584622268195 1.2368653548861572 1.3127209671013036 1.3980438345495743 1.4844994874446038 1.5624269369295067 1.6224023219725754 1.6567277371921594 1.6605658720197205 1.6325326099191662 1.574686057442451 
1.076494427750073 1.0807051357712787 1.0929472398340185 1.1193891617741238 1.163934308410132 1.2271799444571618 1.3060236456478358 1.394000516162218 1.482277347589808 1.561092418473394 1.6213424097160298 1.6559993794573313 1.6610928790526516 1.6361004526071858 1.5837265238996587 
1.0538122948374702 1.052065319028971 1.0621810871626591 1.0899258652630497 1.1383284648448013 1.2068457054893846 1.2912147224232728 1.3840260162887872 1.4758973084604432 1.557002985104575 1.6186453259251739 1.6545564483674386 1.6616916851502688 1.6403974696407881 1.5939796297769044 
1.0128474757539747 1.0058685481798286 1.015393719020305 1.0464651908740703 1.1009346983630306 1.1768835657754955 1.2687465602576835 1.3681209967611454 1.465097790423791 1.5498431241147381 1.614112553399187 1.652403867655429 1.6625442721480455 1.6456396601220682 1.6054571415849006 
0.9564769869594024 0.9456065801163954 0.9562645625249999 0.9925050892051588 1.0548067818669087 1.1397711705240385 1.2405165601020727 1.3476985220003646 1.4509578135952088 1.5405092869412291 1.608561235809006 1.6502991045230075 1.6642700059812041 1.6521408846212866 1.6179412428895148 
0.8886215131142752 0.875857420142887 0.8895933359438051 0.9327093410713783 1.0042289226917047 1.099293963697865 1.2098019812510818 1.3255935525371498 1.435965849958679 1.5312233635253785 1.6039743304919378 1.6499420840873702 1.6681707613694443 1.6606391724944287 1.6314238978366946 
0.8139455031717023 0.8018734867604788 0.8208292243640976 0.872422734519172 0.9542495949854344 1.0601168762396673 1.1808772725767995 1.3057267368283658 1.4237295514825594 1.5252918756725689 1.6033207006225463 1.6538768950617828 1.6762427770507915 1.6724510640845014 1.6464340860383446 
0.7375028853964403 0.7290978259630383 0.7555013950957378 0.8170510065899951 0.9100355962878963 1.027127920089937 1.1583568432418434 1.2924549214887544 1.4183461122655352 1.5265151624661817 1.6100300475936726 1.6650658493031094 1.6908858216371798 1.689349015414256 1.6641078478977303 
0.6643513781804254 0.6626581837580715 0.698621178082812 0.7713908723275447 0.87614212643063 1.004656238884806 1.14636915531886 1.2897138477903298 1.4235336867237667 1.5383361022015687 1.6271943698433229 1.6861820489998935 1.7143227264064684 1.7131353788153691 1.685930808695122 
0.5991592897640167 0.6068913265377557 0.6541332196605726 0.7390095250973352 0.8558180019172444 0.9957010808425071 1.1477128991285666 1.3001137728349264 1.4416886704611365 1.5628897882451427 1.6566454309384082 1.718749201851137 1.7478292669865363 1.7449780493047644 1.7131800428397481 
0.5458310709401654 0.5649475863524739 0.6244890096450447 0.7217707979859797 0.8504673688266694 1.0013168536550414 1.1631623580991879 1.3241732849566374 1.4730664846871386 1.6001567413548754 1.6981074618997583 1.762316420716974 1.7909437941505937 1.7846542534821248 1.746187152323154 
0.5071813344823077 0.5385184329645503 0.6104016219444958 0.7195863775303334 0.8593689938595626 1.0202798843844991 1.1910720306061524 1.359863490721314 1.5152757617805173 1.647421448398053 1.7486324483491682 1.8138751479976363 1.840859311212911 1.829898731957381 1.783612848786488 

0.5998686608211471 0.6271700659035394 0.6813364820239162 0.7634121929274621 0.8714310568831793 1.0001044360978488 1.1409789342435501 1.2830965996284145 1.4140960566570229 1.5216068119429629 1.5947297207220505 1.6253771801391554 1.6092708142895042 1.5464561440735185 1.441278718836978 
0.6845000986069109 0.7100928211691736 0.757840342385201 0.8295838818508342 0.9246405165766154 1.039303593422841 1.166774749757944 1.2975956935457984 1.4205526875037604 1.5239339563159175 1.5969503575062851 1.6310974890586283 1.621248906752506 1.5663212064944085 1.4694296309901818 
0.7710232980667852 0.7942667600614687 0.8347096833353349 0.8951125594345928 0.9762088855133776 1.0759946345169094 1.189416286358672 1.3085645148986242 1.4233823191027701 1.5227947832189597 1.596085041880413 1.6342947439444724 1.6314258249693285 1.5852617253719137 1.4976989073592821 
0.855333871434865 0.8755548277300164 0.9082056483225814 0.9570394027097315 1.0242237916761678 1.109414591443024 1.2092082955949146 1.3171186580629577 1.4241176847805792 1.5196691366364385 1.5930864628131611 1.6349873092821698 1.6386042711210012 1.6007461460303598 1.522274941087661 
0.932824047123244 0.9493474952914208 0.9741678864924327 1.0120349716637578 1.0664410209668072 1.1384951421087468 1.2261767106715045 1.3241438830927574 1.4241604355557191 1.5160797662407899 1.5892161079641225 1.6338624254153786 1.6426950317744935 1.6118374349684217 1.5414295461906313 
0.9987605005086555 1.0109384215955917 1.0283343591019545 1.0566168897279813 1.100368602600184 1.1618009644381369 1.2398693960474882 1.3299849266805297 1.4243954832683232 1.513173929562746 1.5856312489733981 1.6318964388360477 1.644383810207724 1.6189042331648555 1.5552575349731077 
1.048743239638869 1.0559954939955747 1.0667704636903537 1.0874921964696416 1.1234921569394798 1.1776247480998916 1.2493233600383546 1.3342994359852343 1.424952426321771 1.5114130708297395 1.5830181985487868 1.6299380515443094 1.6446610992671218 1.6230859961963895 1.5650617222161123 
1.0791879159092073 1.081068639458405 1.086356469280266 1.101988390258065 1.1336260078931182 1.1842470050496878 1.2532312031515547 1.3361338103980684 1.4251934270403206 1.5104711424304607 1.581392951581083 1.6283967101077859 1.6443797703094298 1.6257015563719759 1.5725996885940159 
1.0877658826208898 1.084061579671673 1.085260988067028 1.098507989890098 1.1293369783666942 1.1803231284249343 1.2502870755536466 1.3342208200342407 1.4239489252106328 1.5093870585730356 1.5801422787061536 1.6271409708391862 1.6439813429983183 1.6277819131262747 1.5794150939677967 
1.0737382912964923 1.0645920174122567 1.0633185988280798 1.0769227631938634 1.110358475064741 1.1653196050861885 1.2396412067501803 1.327438722680943 1.4199561642583358 1.5069473320087523 1.5783091640415918 1.6256456167423368 1.643470956410999 1.6298531249198942 1.5864271524467406 
1.0381323457401517 1.024174925701842 1.022234979744138 1.0388209780991082 1.0778992183622846 1.1398961522880557 1.2213547526698014 1.3153228467437508 1.4123968406539102 1.5022082781926698 1.5750536792777274 1.623348815755341 1.6426396660733746 1.6320099062654139 1.5938621478912345 
0.983727756829426 0.9661856955887271 0.9655633950949398 0.9875364120507696 1.0347583868665624 1.1061280131524378 1.1967331449639276 1.298495705972278 1.401394104620052 1.4950202114265045 1.5701626913361566 1.6201119613398887 1.6414524648860738 1.6342278180127332 1.6015047279580403 
0.9148464069483936 0.8955906992503048 0.8984294518074366 0.9279199082598749 0.9851872308080468 1.0674850435154628 1.1684310731799656 1.2788879912580042 1.3883256330932938 1.4864015039933212 1.5644546628687928 1.616633301435455 1.6404625653744813 1.6367859991129126 1.6091514807927605 
0.8369644611151267 0.8184674678044079 0.8270213606380444 0.8658578106071101 0.9344818993955374 1.0285282925155563 1.1402640365511783 1.2596605803274081 1.3758412263436357 1.4786335762547957 1.559937624297524 1.6146638805703963 1.6410926280421583 1.6406329552910135 1.617088948535136 
0.7561897883253604 0.7413694533278455 0.7579034257954674 0.8075886848467511 0.8883449436068682 0.9943421567467667 1.1167221635850568 1.2448000442086 1.3675348287387528 1.4750053488223047 1.5596283434366853 1.6169131376136154 1.6456480542563954 1.64753553322975 1.626407792323497 
0.6786652570117582 0.6706157080413333 0.6972436562785073 0.7589111438331155 0.8521030455371033 0.9697790591403369 1.1022491033425283 1.2384340671380176 1.3672993454317854 1.4792156442747766 1.5670186801676915 1.6266039941519583 1.6569914955315346 1.659904705426833 1.6390069147633621 
0.6099679451163554 0.6115994106299362 0.650065793412245 0.7244027605982738 0.8299052700253664 0.958641180577021 1.1004075799865451 1.2439825474546242 1.378470913398024 1.4945268783011332 1.5852638012550049 1.646727151597653 1.6778966918012235 1.6802785583005333 1.6572256515491461 
0.5545745630282399 0.568208593382559 0.6196375616692057 0.7067768144630752 0.824041047099825 0.9629490622311256 1.1130901489087566 1.2633090101387192 1.4029294305415694 1.5228335691769708 1.6162457046599834 1.6791303880804098 1.7101923216311934 1.710541794576704 1.6831478978243006 
0.5154547705021958 0.5424376385666064 0.6070896388240695 0.7064875814403502 0.8345058150612962 0.9824431672595041 1.1399394447308726 1.2960532835693588 1.440349473198887 1.5638476071296843 1.6597150587342537 1.7236396522525075 1.7538797065534042 1.7510474536655014 1.7177229313558113 
0.4938380780999083 0.5342414384540901 0.6113262050368753 0.7216580441472434 0.8589056246475612 1.0144308788330796 1.1781137797689154 1.3393047693406723 1.4877822421102427 1.6145981636778641 1.7127212248881984 1.7774283538422 1.8064426499169048 1.799858004366358 1.7599180849002072 

0.6052400427361371 0.6142655254782551 0.6481804827744774 0.7100528462880605 0.7999821161096489 0.9145249186281105 1.046616449304699 1.1860594723948874 1.3205482134193791 1.4370920023257079 1.523624915999997 1.570549716585408 1.5719748023641724 1.5264586741332287 1.437164770444444 
0.7008448177499452 0.7078732937332394 0.7352267610555653 0.7867120323854297 0.8636181061607479 0.9639747030881115 1.0822717836078857 1.209741949587083 1.3352028668716023 1.4463494474183882 1.5312985362244746 1.5801405234041783 1.5862520112368101 1.5471699628023332 1.464909097872865 
0.7962264449872632 0.8011008102487924 0.8214629226332747 0.8619121534602063 0.9250213852114332 1.010408789418619 1.1142337653011145 1.2292538270308975 1.3454730830441157 1.4512988753549916 1.5350256281946493 1.586404249007038 1.598043031524155 1.5664223818000407 1.492380645170328 
0.8868036706657692 0.8891244666075928 0.9022619125678174 0.9316390367770194 0.9811147373472798 1.0518633682325396 1.141649609708478 1.2446706951959552 1.3520285520909558 1.4527718560882268 1.5353387674960906 1.589157787282153 1.6061405160404134 1.5818283793577006 1.516026464936418 
0.9676404963019105 0.9668140224442533 0.9727612425798243 0.9917179197591215 1.0287244584493551 1.0863264290307941 1.16365698447565 1.2561041617822841 1.355650759403026 1.4518421958933847 1.533217044621244 1.588950729829603 1.6104309554956293 1.5925073734021655 1.5342290098492284 
1.0338291850998367 1.029154219595875 1.0282668641281836 1.0381463438601437 1.0648006129150986 1.1118214304823235 1.1793275899325475 1.2635212404286547 1.3569589937383766 1.4494973398554616 1.5297416200389558 1.5867363853446017 1.6115995693539955 1.598827511820367 1.5470731574831809 
1.0809686486095935 1.071760663092193 1.064749437783021 1.0675195781163604 1.0867330302488472 1.126591891680297 1.1877155586389434 1.2666663357776455 1.356225178457458 1.4463684774087695 1.5257605543581447 1.5834831361622292 1.6106900816760539 1.6019063855445124 1.5557740966500408 
1.1056782291022262 1.0914244350699427 1.0793710196292001 1.0774986203607093 1.0927319331652057 1.1293791945194824 1.1880285445046304 1.265129438817092 1.353345727796087 1.442610524568194 1.521675786727934 1.5798603374151567 1.6086756445038701 1.6030506020908768 1.5619714889252108 
1.106070595198645 1.0866016671962462 1.0709591360559099 1.0672458330530339 1.082212135042186 1.1197504596293308 1.1798987985843086 1.2585597782891824 1.3479928273866086 1.437979069601559 1.5174263098266163 1.5761028419222507 1.606178567556214 1.6033087948643443 1.5671036708000052 
1.0821039340912653 1.0577602860453 1.0403383904058452 1.037741095634575 1.056099990502762 1.0984045357779455 1.16369320182877 1.2469770776587565 1.3399134773855481 1.4320929198712564 1.512681662156655 1.5720995781935332 1.603421270156256 1.6032620226071623 1.5720298053307808 
1.0357445699541206 1.0075087277085173 0.9904405199111053 0.9918967862959912 1.0169792639519377 1.0673704203593442 1.1407756436113612 1.2310951009057431 1.3292962165992535 1.42481306846949 1.5071944027026563 1.5676800800668085 1.6004143206167698 1.6030943255800372 1.576981816884898 
0.9708954958199607 0.940459684151046 0.9261420297143367 0.9344141119697242 0.9690088412984806 1.0300191334685096 1.1136301450453803 1.2125547563907553 1.3170955632333587 1.416626867066722 1.5012064009349313 1.563007351034786 1.5973099835692963 1.6028962588964504 1.5818247906991818 
0.8930803382049254 0.862821713709504 0.8538202314080994 0.8713632849465772 0.9175803285725255 0.9908378830147665 1.0857718958187315 1.1939725589029684 1.3052016052088904 1.4089115913771448 1.4957761367304374 1.558943465215648 1.5947918729274608 1.603079083293307 1.5865109351645392 
0.8089102421821196 0.781756062824712 0.7806665907298758 0.8095189966549963 0.8687311910873189 0.9549598852418938 1.0614134133482613 1.1787445070905513 1.29636921371032 1.4039696555902426 1.492901167763641 1.5572477403472718 1.594348751090175 1.6047366073798592 1.5915519776717733 
0.7253964143284131 0.7045772300245571 0.713841770838935 0.7555312100252212 0.8283799272354128 0.9274957043837047 1.044906522367846 1.1705989064085975 1.293873254050975 1.4047758726321673 1.495351569522331 1.560499446311237 1.598300183949111 1.609796472997171 1.5983233225202085 
0.6491972970732662 0.6379058400590126 0.6595905951880571 0.7150494568134312 0.8014930695499882 0.9127611506351846 1.0400362268386218 1.1729528472176498 1.300921891866968 1.4144453206311804 1.5061980178415775 1.5717015678256252 1.6095001692793032 1.6208527172727352 1.609053732589516 
0.5859018436836276 0.5868952949056075 0.6224500936179288 0.6919380135053178 0.7913195981205327 0.9135312285868387 1.0492870149770765 1.1881819249647254 1.319924730880519 1.4355032109075956 1.5280970311214754 1.593604603283103 1.6307287634373036 1.6406552233947171 1.6264372104865688 
0.5394468513731598 0.5546464912736543 0.6046759433303409 0.6877143267087792 0.7988297321051399 0.930460443929032 1.0732245845114785 1.2169480135103075 1.3517606323875824 1.4690984353747218 1.5624671228031883 1.6278702420806952 1.663871144719678 1.6713290574975042 1.6529091012007475 
0.5117473815330985 0.5418983873790115 0.6059823558973001 0.7013132784912851 0.8224698616919891 0.9617926580255477 1.1101295740078396 1.257735886505578 1.3952092467299946 1.5143350563571953 1.6087355394176517 1.6742540028516513 1.7090563459696186 1.7134836117679084 1.6897303010821054 
0.5025882335306449 0.5470406943714945 0.6236425110296444 0.7292296888357338 0.8582968650933221 1.0034401368842578 1.1559838473237898 1.3067227466731777 1.4466941171182182 1.5678913971974047 1.6638432366035834 1.730007704745657 1.7639649954933025 1.7654255674659325 1.7360961165136803 

0.6162788616505072 0.6054740591020019 0.6169280590954248 0.65570021494845 0.7239916290628328 0.8203120912567631 0.9391620142534388 1.0713396043535686 1.2048699214595215 1.326434718076554 1.4230848606945599 1.4839612412044203 1.50174690703449 1.4736227036783558 1.4015897487256495 
0.7236213481504351 0.7109716743190096 0.71627491445455 0.7452542117983606 0.8011669705455514 0.8838295982534167 0.9891290866628826 1.1091554257470069 1.2329749696774353 1.3479436203578934 1.4413556227205855 1.5021603411307693 1.5224681761785903 1.4986088080428521 1.4315897887550841 
0.8286333068686497 0.8144809568582992 0.8136635842023052 0.8325509876275009 0.8755119657267395 0.9437817647749392 1.0347787004435136 1.1420333928431927 1.2557802262313422 1.3641349160512966 1.4546709779958293 1.516134373967701 1.5400138832680428 1.521717408255741 1.4611823057467563 
0.9260670025719747 0.9102688148805577 0.9033073812730817 0.9121870648240867 0.9423783796914443 0.9965227476653178 1.0735499385730858 1.1684032340125436 1.272452549959361 1.3745441169419124 1.4625147422305798 1.5249139589844378 1.5526447183379375 1.540257045614685 1.486701322736876 
1.0105845861961968 0.9925765311079433 0.9794853229741212 0.9789252914431357 0.9973780412204459 1.0387434634139838 1.103277256139366 1.187139445620664 1.2826607423435257 1.3792947232020545 1.465093384528354 1.528448399124854 1.5597986117605283 1.55302176551543 1.5062980143277076 
1.0771736645657115 1.056119134971253 1.0370684832817099 1.0281898579246143 1.0367958860877355 1.0677671620937974 1.1223526851227557 1.1975945569588586 1.2865016536191245 1.3789503368503242 1.4631510221405533 1.5274163246093986 1.5619192889737605 1.560145578107345 1.5198143274804603 
1.1216364147645943 1.0966408107909036 1.0720836992307468 1.0565823667204643 1.0580124046516293 1.0818477155301736 1.129887133557745 1.1996271485149164 1.2844110501492647 1.3743309133290182 1.4577134576481292 1.522914145823243 1.560096435580678 1.5626914994281553 1.5283099628308427 
1.1410895013550655 1.1114529026477817 1.0822397743768928 1.0623519200510514 1.0598842784409537 1.0804411292627703 1.1258664546835888 1.193646570260015 1.277106780066159 1.3663646245201488 1.449854908449574 1.5161369899333854 1.555653020639968 1.5621324275467563 1.5334230771060087 
1.1343961639986269 1.0998678560373971 1.0673299319783216 1.04574126593569 1.043019987848841 1.0644063982375807 1.1112804960107248 1.180675975063382 1.265589792027559 1.3560252971674776 1.440562784243455 1.5081546469103952 1.5498119476339038 1.5598883586245451 1.5367636969850889 
1.1024499536905696 1.063444661576388 1.0294282738574705 1.0091339884232062 1.009886217485952 1.0360846096601424 1.0881883856216037 1.1624122355767614 1.2511982025151873 1.3443694508777346 1.4307366714678418 1.499845054937634 1.543535538826943 1.5570485448643172 1.5395062040882577 
1.048243598598913 1.0059806315482893 0.9728190668308163 0.9569467335805295 0.9646941314567689 0.9992096409058804 1.0596769234057768 1.1412432135170816 1.2356800123539045 1.3326469203171394 1.4213087089794025 1.4919915010108267 1.537568867524283 1.554339268172793 1.5422739893825543 
0.9766849969764623 0.9332187051290161 0.903633882478851 0.8952442717569657 0.913042086447561 0.9586218016261593 1.0296752496340447 1.120176271302197 1.2212302860892486 1.3224263029559542 1.4134273259796655 1.4854924390453261 1.5326487482178246 1.552316567160112 1.5453154940948899 
0.8941608564092195 0.852283633148951 0.829217531100095 0.8310990077192401 0.8613296350706933 0.91978582263217 1.0026088877387787 1.1026405303031575 1.2104352246108796 1.3156606154771011 1.408617449814157 1.4815902085473112 1.5297828246454999 1.5516900306676962 1.5488808322503171 
0.8078902107143092 0.7709065759475003 0.7572913147130446 0.7717627390921803 0.8160001965532003 0.8881517953111765 0.9829070011108714 1.0921488432260955 1.2060809677106121 1.314624910708722 1.4088262854364735 1.4820088549265589 1.530473124869188 1.5536378804598185 1.55364510912213 
0.7251471667864992 0.6965371361441982 0.6950222451991869 0.7237580114165242 0.7827081022378862 0.8684345665124552 0.9744121436830676 1.0918392666847416 1.2108165893075116 1.3216858757248744 1.4162868919344658 1.4889069634778291 1.5367643021036161 1.5599673239939102 1.5610046291269284 
0.6524575901429018 0.6354667234285342 0.6481311690017711 0.6920207648116329 0.7655312891926169 0.8639152581991466 0.9797737522620594 1.1039522609029842 1.226701534905624 1.3389075453797035 1.4331774013723182 1.5045961887548356 1.5510381974081056 1.5730100134979788 1.5731009615223357 
0.5948829346401613 0.5920919553483258 0.6201754109337235 0.6792288935241547 0.7663569326959747 0.8758805004368975 0.9999267747386014 1.1293296934393466 1.2547077353878682 1.3675467702453163 1.4611112840871399 1.531039798482944 1.5755440075247562 1.5952123461778398 1.5924988418815622 
0.5554940927073676 0.5684297400654196 0.6121207026495735 0.6854304601906926 0.7845504419985969 0.9033059060996395 1.0337586537789094 1.1670364963564643 1.294275290249138 1.407534540889337 1.500549494105095 1.5692127198992374 1.6117310086377068 1.6284675566966325 1.6215401575467019 
0.5351105574041515 0.5639590930757516 0.6222753821378747 0.7080428227902849 0.8169796133521404 0.942859649793034 1.078048462760917 1.2141998993625123 1.3430294224209107 1.4570632325529678 1.55026434221397 1.6184583576803386 1.6595191489524006 1.6733195639176301 1.6614942408540938 
0.5323401333196792 0.5758146906611562 0.6466038678831026 0.7422364459648412 0.8584110043209604 0.9892537085154138 1.1277229451279123 1.2661333324750697 1.3967510116462423 1.512397610496088 1.6069964538044843 1.6760033435551005 1.7166839761049975 1.7282260509030762 1.7116997212700396 

0.6315953481952069 0.6006533715657846 0.5891070527897849 0.6038223506319184 0.6489588169966395 0.7248998037355653 0.8277100878490045 0.9492671482514303 1.078090799251147 1.2007644341527097 1.30372715402072 1.3751434741611055 1.4065412081872903 1.3939514695568516 1.3383777693789116 
0.7507212280597714 0.7186955054759675 0.7020729271009895 0.7082877896373148 0.7423881729114153 0.805852089599325 0.8959121245232319 1.0055512169089562 1.1242101782971905 1.2391138656326874 1.3370054600784624 1.4060013871931543 1.4372585271737237 1.4261837817573366 1.373004385593835 
0.8655809335176895 0.8333157105446305 0.8120915441722135 0.8098252103673534 0.8324720424257795 0.8827180562144672 0.959144354375877 1.056049420641848 1.1639940306879617 1.2709975093958352 1.3641913065249915 1.4316515959193832 1.4641034015507866 1.4562190264785713 1.407314936804692 
0.9700942536092725 0.9376776959411001 0.9119831884634291 0.9013567601366348 0.9126452670976212 0.949759301639784 1.0126658670725104 1.0970232655363912 1.1945510385531288 1.2940885672630769 1.3831662445866644 1.4498195825360725 1.4843374035889494 1.480656377739808 1.4371885393095463 
1.058459558249353 1.0253018264058669 0.9950343485716839 0.9763971693876387 0.9770611315727658 1.0020659323898597 1.0526494767186012 1.1257080302653386 1.2140072113422526 1.307120183133713 1.3929318284567382 1.4594444780820903 1.4965719315013848 1.4976216690462643 1.4602343850361423 