# vtk DataFile Version 3.0
vtk output
ASCII
DATASET STRUCTURED_POINTS
DIMENSIONS 15 20 65
SPACING 1 1 1
ORIGIN 0 0 0
POINT_DATA 19500
SCALARS Image float 1
LOOKUP_TABLE default
0.45483319815490963 0.5414460321142107 0.6426871761588088 0.7545898446801936 0.8727499565755482 0.9925877923871564 1.109610113288344 1.2196550431299462 1.3191041624191921 1.4050493890256757 1.475406028739361 1.5289675546467736 1.5654019084610304 1.585193125548261 1.5895356236001938 
0.5177880487791151 0.6003789530478474 0.6965400691323625 0.8025098497482576 0.9141531059611484 1.0272032144011114 1.1375011526875798 1.2412157504142303 1.3350317863608834 1.4162955696800164 1.4831111362214555 1.534383894199621 1.569812210139295 1.5898308147073483 1.5955128479240375 
0.5797404217353473 0.6574382054681661 0.7477132468302682 0.847038833641456 0.9515714548447577 1.0573709958654978 1.1606149451261056 1.257793269882169 1.3458728631621373 1.4224232478811758 1.485698300641387 1.5346718979478138 1.5690283976339816 1.5891115950718295 1.5958381242028477 
0.6380836632950785 0.7103003761623179 0.7942040399764535 0.8865250208752841 0.9837233264018926 1.0821848108985463 1.1784096852635266 1.2691823720423963 1.3517138758146627 1.4237502854236088 1.4836435804823074 1.5303834097953777 1.5635908197487574 1.5834769566050735 1.590771503960093 
0.6906389211146159 0.7570439623208663 0.8343693971555631 0.9196197737406637 1.009562591624378 1.1008990046147367 1.1904264694073396 1.275184813281626 1.3525790778424804 1.4204744815387627 1.477260775296949 1.5218850413450578 1.553853557725657 1.5732047169815062 1.5804561712990206 
0.7357649565372913 0.7962299111140941 0.8669779619713551 0.9453025206735318 1.028278402602039 1.1129058422545746 1.1962476080218618 1.2755531218601126 1.3483649867483805 1.4126047223606681 1.466635714970559 1.509302377213399 1.5399453220781432 1.5583930586920158 1.5649314052900016 
0.7724194636110299 0.8269418954397111 0.8912316833364798 0.962886160834912 1.0392869920862808 1.1177165078529678 1.1954698831511155 1.2699594579903524 1.3388084695110334 1.3999321466568877 1.4516045012988106 1.4925092948493939 1.5217736894374565 1.538983161988511 1.5441765205909448 
0.8001708325611004 0.8487877607483031 0.9067604631807389 0.9720080749279054 1.04222183690695 1.1149528450768211 1.1876999519883888 1.25799645891246 1.3234945330575019 1.382046133059974 1.431778697866252 1.4711631058527734 1.4990706562975613 1.5148152970442212 1.5181772307179817 
0.8191639844285176 0.8618670189728378 0.9135954339292585 0.9726125539139938 1.0369277625794175 1.10435477681479 1.172575834174451 1.239212696524159 1.3019048715794725 1.3583943628937978 1.4066147452184148 1.4447806828659044 1.471472471150972 1.4857090952408432 1.4870029299473373 
0.8300479848809316 0.8667119406703007 0.91212769135174 0.9649302618315396 1.0234630090083 1.0858055437723353 1.1498145647016096 1.2131806932581974 1.2735029957043427 1.3283807613654894 1.3755195512782485 1.4128458971601017 1.4386227199935262 1.4515559352149494 1.4508821281961026 
0.8338761884265302 0.8642114345194284 0.9030595769231476 0.9494593237373692 1.0021110774445319 1.059373692280853 1.119282083081905 1.179590880842567 1.2378469460134398 1.2914903536143667 1.3379798338832036 1.3749350563911542 1.400285080052734 1.4124102125978246 1.4102637837204521 
0.8319913561375529 0.8555273529384825 0.8873549112278399 0.926950921721251 0.9734016103727732 1.0253674967608633 1.0810777211197613 1.1383609540229105 1.1947166985655064 1.2474264936893324 1.293699817881504 1.3308449484224663 1.356451239208062 1.3685667633612248 1.3658544151579362 
0.8259083745621896 0.8420121137057908 0.8661930473385129 0.8984001254692062 0.9381369454638832 0.9843946173764411 1.0356226816173368 1.0897472139435709 1.1442408294656943 1.1962439078449534 1.2427306019481041 1.2807077369283686 1.3074302281890278 1.3206137298666496 1.3186242917549156 
0.8172059051228014 0.8251347171652318 0.840929469974634 0.8650403789999994 0.8974186796204808 0.9374176392258011 0.9837400379096566 1.034443055985522 1.087006108990114 1.138460750969144 1.1855750209642983 1.225078304574032 1.2539076723197913 1.2694533787202484 1.2697802081504528 
0.8074357183738362 0.8064196392332402 0.8130632274309384 0.8283379463477433 0.8526669113152504 0.8857950243021608 0.9267132945756021 0.9736499385713314 1.024134569832381 1.0751344407205923 1.1232540678201746 1.1649825140998513 1.1969669305774966 1.2162873638812162 1.220706782119242 
0.7980549834149411 0.7874000700296679 0.7842091138123571 0.7899810170166672 0.8056240774011375 0.8312971425402088 0.8663115649441783 0.9091080170728462 0.9573151900205373 1.0078892640766477 1.057324664928204 1.101918925697381 1.138068334409259 1.1625671802985766 1.1728823037216332 
0.7903828752683834 0.7695839853653461 0.7560705900430847 0.7518573735143069 0.7583356543480662 0.7760885198479991 0.8047719214844579 0.8430770173241017 0.8887814289014889 0.93888833891309 0.9898434110121701 1.0378113340139246 1.0789872911273357 1.1099145762225926 1.1277784149777306 
0.785579076282146 0.7544290276241 0.7304082718441288 0.7160147307618204 0.7131015259554513 0.7226701933895593 0.7447332845988303 0.7782625728525631 0.8212310816632692 0.8707480193263222 0.9232763914684697 0.9749145740621907 1.021716394564665 1.0600200458702882 1.0867549390424704 
0.7846386137272505 0.7433205234089079 0.7089986600486976 0.6845991560280845 0.6723944662165552 0.6737798953523063 0.6891210102089335 0.7176887367236701 0.7576907812683081 0.8063987255556608 0.8603606937249445 0.9156808858244483 0.9683404488239988 1.0145298685530688 1.05096179921527 
0.7883954426316958 0.7375464565926949 0.6935787527440147 0.6597693140808067 0.6387457415289339 0.6322523574041354 0.640986669800126 0.6645231772798396 0.7013334066429918 0.7489018812440212 0.8039283692298772 0.8625982521690895 0.9208961012049633 0.9749332860724025 1.021259142503454 

0.3862365484060457 0.4659953366501195 0.5627136764303118 0.6726114104944869 0.7913556622138024 0.9143193947725836 1.03684655405452 1.1545059611733284 1.263317936515366 1.3599404429441089 1.4418050556660216 1.5071970062392919 1.555277619237481 1.5860513954060713 1.6002835619179012 
0.4428015047136473 0.5180504331366675 0.6093014245333445 0.7129851050308316 0.8250401726522469 0.9411528338442281 1.0569992652405737 1.1684753074435874 1.2718995103540705 1.3641783416725901 1.4429255836965615 1.5065314218344454 1.5541802344342819 1.5858194217780532 1.602084592502461 
0.4989685714565565 0.5690483802597337 0.6542066813847731 0.751109075423226 0.8559852723252382 0.964846860209901 1.0737052359567056 1.1787761467409856 1.2766592120827553 1.3644832744703934 1.440011233400468 1.501700943583654 1.5487216273001252 1.580927925435995 1.598796088675143 
0.5524754279159566 0.617024734611746 0.6957930789159396 0.785697134866094 0.8832655488329796 0.984833130960222 1.0867333267653945 1.1854777849979317 1.2779136578876784 1.3613514249905423 1.4336583312888282 1.4933148222778945 1.539433536644232 1.5717424156053528 1.5905352728100008 
0.601471731493231 0.660382603904729 0.732733178770487 0.8157020006561762 0.9061165688113989 1.0006225449692407 1.095850582855919 1.1885720198362413 1.2758362670444359 1.3550844484163886 1.4242355312678567 1.481742776753562 1.5266197866623465 1.558436744467063 1.577288677367291 
0.6445967312507351 0.6979424264129005 0.7640318738366485 0.8403142749967925 0.9239120239702318 1.0117638731386935 1.1007664630216456 1.1879078842382809 1.2703881766517848 1.3457228217526498 1.4118262717253125 1.4670733739649102 1.5103372435934808 1.5410027976172325 1.5589558927777607 
0.6810103941380367 0.728955133822572 0.7890243312753077 0.8589479377099442 0.9361396335084067 1.0178130868293485 1.1010988190088482 1.1831577357609633 1.2612881217512624 1.3330233619842944 1.3962178429885697 1.4491184763107974 1.4904192131330452 1.5192959492023235 1.5354195160830604 
0.7103804748573567 0.7530832070776646 0.8073545894578467 0.871219583325049 0.9423836669411796 1.0183213861986768 1.0963692659334083 1.173821469375739 1.2480266961415847 1.3164844733013332 1.3769383005509277 1.427462227933363 1.4665365995561288 1.4931081344721013 1.5066294564613019 
0.7328322615697664 0.770357065855401 0.8189424142480142 0.8769286781439402 0.9423205932852992 1.012847281941021 1.0860318184891375 1.1592709777659267 1.2299251459936715 1.29541713167362 1.353336963809594 1.4015479742273964 1.43828784840233 1.4622572165326497 1.4726880162793665 
0.7488710246121485 0.7811160661403834 0.8239463961372177 0.8760450857509287 0.9357320414235536 1.0009946338583595 1.069534308057818 1.1388319831329237 1.2062335205442372 1.2690543041180904 1.3246993115492387 1.3707923349688214 1.4053056394655297 1.4266797284422883 1.4339223331455564 
0.7592891215752832 0.7859439187303995 0.8227304919957902 0.8687081279182287 0.922536226348717 0.9824746694844178 1.0464076058525207 1.1118955429974262 1.1762581606672922 1.2366869669866611 1.2903832070301102 1.3347127711337117 1.3673667435315444 1.3865141461867543 1.3909327293825697 
0.7650700723708496 0.7856075452836674 0.8158393912702366 0.8552387504547778 0.9028356056662239 0.9571861296183861 1.0163735467398278 1.0780474019703972 1.1395046471253631 1.1978115824828222 1.2499609190770817 1.2930536349681385 1.324491480612123 1.3421634762385493 1.3446089354478739 
0.7673007090205296 0.7810063882310143 0.8039854625989559 0.8361632911726777 0.8769751917944804 0.9253042706767647 0.9794591479668537 1.0372003767259081 1.0958198625964344 1.1522721418692865 1.2033505653125425 1.2458959440783333 1.277020721366679 1.2943288319430244 1.2961105296374438 
0.7670999225391618 0.7731362763071975 0.7880469743583131 0.8122443090884268 0.845603090623854 0.8873669277971844 0.9361026516983391 0.9897134758155478 1.045516022235804 1.1003798645610612 1.1509214446705722 1.1937378863790524 1.2256611113723008 1.2440094084010465 1.2468126698985196 
0.765568948022865 0.7630685362364632 0.7690742181491923 0.7845113626588774 0.8097228735919482 0.8443445683831431 0.8872363866968551 0.9364816857280457 0.9894605180249371 1.0429953690873228 1.093560146471063 1.1375361176378593 1.1714928155093705 1.1924683617506702 1.1982226730261298 
0.7637640582470927 0.7519416289807324 0.7482975571031587 0.7542829237201204 0.7707266484859502 0.7976814897971839 0.8343325954829176 0.8789823533951471 0.9291181548687125 0.981561456751291 1.032688077897762 1.0787019217943792 1.115938159525185 1.1411680666458763 1.1518766734644785 
0.7626885563600453 0.7409596869816794 0.7271296941217037 0.723170104069097 0.7303983856244926 0.7492971342187051 0.7794011937332712 0.8192677421365481 0.8665366148761607 0.9180792738443571 0.9702257782171213 1.019050857983303 1.060693654109214 1.0916816270761118 1.1092280467899815 
0.7632976459559379 0.7313903949553644 0.7071539363372511 0.6930537444482138 0.6908792352841879 0.7015398332589774 0.7249327258278442 0.7598983400259869 0.8042713996701818 0.8550261202681989 0.9085046390481468 0.9607091750950635 1.0076316165117973 1.045590007571997 1.0715402603460218 
0.7665076057388013 0.7245540305665777 0.6900911023783367 0.6660286962797256 0.6545901176252361 0.6570899017273307 0.6737851915855505 0.703817411368611 0.745252572070923 0.7952190377175609 0.8501319313823449 0.9059845972239366 0.9586806108636599 1.0043755156685517 1.0397962536109484 
0.7732000468675043 0.7217963305581123 0.6777399776481648 0.6443126560137095 0.6241114779864303 0.618814455970467 0.6290194369614012 0.6541735401266539 0.6926017661077176 0.7416339781707798 0.7978198525274091 0.8572126740572115 0.9156959536332425 0.9693225199325651 1.0146344764266837 

0.3219061893452889 0.39401663823532196 0.4852946765866275 0.5921684356508696 0.7104058111934101 0.8353677570485339 0.9622737208041802 1.0864615276096634 1.2036255351575758 1.3100193689391069 1.402612745477132 1.479195532283879 1.5384260139858719 1.57982409376877 1.6037136480093293 
0.3724661365838452 0.43972886193593097 0.5253093111441248 0.6258467436983943 0.7373776308030183 0.8555704289105084 0.9759690200976568 1.0942291026584368 1.2063334327442115 1.3087741989227308 1.3986937165543964 1.4739778237266874 1.5332996329653228 1.576114461768304 1.602609681632678 
0.42353488201117295 0.4855071333402238 0.5649404944665121 0.6587047907661167 0.7631221177901147 0.8741805241533297 0.9877534492500073 1.0998113973690313 1.206613964937521 1.3048725179474743 1.3918763294069474 1.4655776438142376 1.5246337847418436 1.5684069479167304 1.5969246431836002 
0.47320729970751796 0.5297481916542068 0.6029098508258336 0.6898035083697333 0.7870421105382346 0.8909310194302397 0.997662396959996 1.1035020918976608 1.2049594020625576 1.2989319589480357 1.382820005088853 1.4546063731573908 1.5129004453345267 1.5569462290547418 1.5865964164047344 
0.5199482774994746 0.5711570743027959 0.6381743245771908 0.7183581794630406 0.8086096547866197 0.9055389966638344 1.0056347416776732 1.105426698257018 1.2016354290800595 1.2913022728439318 1.371895381192294 1.4413885961175135 1.4983112444394888 1.5417681113948674 1.5714300285563478 
0.5626382090862917 0.6087671495547261 0.669922751764356 0.7437140290065168 0.8273236946121358 0.9176492101638949 1.0114468125898268 1.105472163323451 1.196612289202033 1.2820044105449062 1.359138010607476 1.4259370997465366 1.4808201369196912 1.5227356000598173 1.5511718649017245 
0.6005763329100325 0.6419292289177685 0.6975536988801019 0.7653157068358599 0.842674154903232 0.9267958335705436 1.0146750301857046 1.1032538210957017 1.1895396388510746 1.270716982072642 1.344250126952729 1.4079734958288124 1.460166094177703 1.4996063297397808 1.5256037580421253 
0.6334476408798989 0.6702770735600957 0.7206429685203026 0.7826796451391432 0.8541214808389416 0.9323910395389455 1.0146949749251821 1.098126052552153 1.1797696069051975 1.2568122633519798 1.326649897193688 1.3869907524755982 1.4359486441675182 1.4721204825548782 1.4946422274922209 
0.6612627724440873 0.6936788508465664 0.7389099355888706 0.7953775901325217 0.8610986634068198 0.9337458294746688 1.0107204113342334 1.0892380712304455 1.1664272027883276 1.2394385086593673 1.3055624691810102 1.3623494782840675 1.4077256750459752 1.4400962716830468 1.4584277628884244 
0.6842826368152736 0.7121849529363425 0.7521913050975573 0.8030377016428961 0.8630396903225989 0.9301244605833028 1.0018809987530217 1.0756310298864835 1.1485219044161235 1.2176402837414373 1.2801427232647145 1.3333964198340413 1.3751209066081365 1.4035197532287822 1.4173907008769184 
0.7029401964455938 0.7259819511226919 0.7604290216327986 0.8053666764849591 0.8594345340246311 0.9208293274107195 0.9873325327037382 1.0563676570908038 1.1250894944905965 1.1905043349784457 1.2496163434518888 1.2995915799301856 1.337927932724856 1.3626170566313993 1.3722836301034786 
0.7177708334455132 0.735360411686969 0.7636761296284759 0.802192714367601 0.8499066454313999 0.9053087295451026 0.966389097094238 1.030681392291477 1.095349470448307 1.157315542561029 1.2134239067777104 1.2606297588085162 1.2961986807967625 1.3178998154930226 1.3241748538939722 
0.7293601643361297 0.7407011160168467 0.762120753995335 0.7935252530301655 0.8343049553516839 0.8832761064432796 0.9386629661035666 0.9981289499523397 1.0588610112965502 1.117706046336119 1.1713522894055202 1.21654313931006 1.2503063081955559 1.2701782152126384 1.2744026026155604 
0.7383144313124863 0.7424803464632924 0.7561245281329477 0.7796237624027559 0.8127991042582862 0.85482652837538 0.9041959093870059 0.9587287673899649 1.0156598057980948 1.0717808249884087 1.1236388092121325 1.1677736292427299 1.2009756415323474 1.2205401539362666 1.2244947373271389 
0.7452542091047648 0.7412908682576056 0.7462682846108172 0.761065022489196 0.7859644947266725 0.8205349024501768 0.8635650462024816 0.9130681017355536 0.9663591480393262 1.0202048525795346 1.0710360435541935 1.1152067884100054 1.149277882209815 1.1702990322136384 1.1760629950423205 
0.7508277537884271 0.7378716480990176 0.7333951762727013 0.7387966745435973 0.7548431586003097 0.7815207556796789 0.817947730273538 0.862363700031102 0.912201544514801 0.964240306791926 1.0148289395339558 1.0601629816590843 1.096590055520556 1.1209161887613073 1.1306838927255671 
0.7557365291641661 0.7331367577917788 0.7186400632573099 0.7141647659216365 0.7209675690453755 0.7394666900843577 0.7691331112361567 0.8084648532183237 0.8550514428718805 0.9057268802778127 0.9568003402816396 1.0043455501885785 1.0445231996832982 1.0739066281771783 1.0897799115568008 
0.7607628531616832 0.7281927593787916 0.7034342866837754 0.6889046658447249 0.6863374288820373 0.6965815643606198 0.7194727971020338 0.7537929583458127 0.797325222597466 0.8470036526872248 0.8991459835460556 0.9497499079557779 0.994826260691581 1.0307382138404542 1.0545144117975327 
0.7667886348767579 0.7243344190961837 0.6894769544066713 0.6650880607443216 0.6533439399771004 0.6555048323853775 0.6717690316327377 0.7012179872484331 0.7418607872906932 0.7907767296180198 0.8443449476321517 0.8985411910903393 0.9492748403577421 0.9927348386691237 1.0257119746833505 
0.7747950297000233 0.7230108868342121 0.678667461254995 0.6450234693332054 0.6246417034599129 0.6191547613026103 0.6291054346272159 0.6538788976134796 0.6917353789586619 0.7399424077371387 0.7949959767958922 0.8529110980602731 0.909555187248206 0.9609932853754966 1.0038128040731467 

0.2647539440139731 0.3289079810087625 0.4142338485815146 0.5173743358274047 0.6342171711673378 0.7601415908512824 0.8902816892755279 1.0197892307094159 1.1440798858313816 1.2590490582993628 1.3612463452007217 1.4480009837085683 1.51749414120293 1.568777399524076 1.6017400881739055 
0.31000300803263436 0.3691405743758246 0.4487103985340414 0.5455613449180765 0.6558409476940523 0.7752243376919242 0.8991565668155536 1.0230929050132582 1.1427230746525843 1.2541674959139062 1.3541362187328376 1.4400440990456915 1.5100787547662131 1.563220759391105 1.5992182802990196 
0.3569184153608337 0.41080513727020906 0.4843291105729284 0.5745608974940707 0.6779236656455923 0.7904018305066656 0.9077601364176507 1.0257598887428316 1.140360469537797 1.2478961933262673 1.3452207878313973 1.429814148103226 1.4998483844636326 1.5542124793047867 1.5924970316781488 
0.40394984387959965 0.4526470514137011 0.520147278371038 0.603749537510672 0.700156578090088 0.8056613155755453 0.9163414310437595 1.0282511487764014 1.1376005572485615 1.2409144796750846 1.335164660470734 1.417870798694704 1.4871676677082797 1.541837196563324 1.581305966988995 
0.4498525469090012 0.49364027680021727 0.5553660697619934 0.632558912741392 0.7221971998269079 0.8208715916826358 0.9249547075422243 1.03076903668974 1.1347456421243982 1.23356748161364 1.3242923718831583 1.4044517186734455 1.4721221403433353 1.5259680843274692 1.5652545554095503 
0.49370190069197584 0.5329795904069721 0.5893028765832194 0.6604311032481957 0.7436110431415038 0.8357152261140209 0.9333868953229123 1.033185375805734 1.131726535018025 1.2258137694359892 1.312555503914862 1.389465561289203 1.454543038333035 1.506328645227574 1.543934975964644 
0.5348721136550343 0.570049256107548 0.6213529448443348 0.6867761141882266 0.763827862127587 0.8496465056373506 0.9411203351426655 1.035012220912466 1.1280847013042745 1.2172223284174324 1.299547867449423 1.37252854167812 1.4340680575445948 1.4825798445405578 1.5170370112823144 
0.5729878199850491 0.6043779065612178 0.6509506078429553 0.7109418938036857 0.7821223137613322 0.8618840991762682 0.947338386473799 1.0354210178893413 1.123005309171261 1.2070196016006318 1.2845664270824892 1.3530388954836066 1.4102287205298643 1.4544194204617624 1.4844579281813233 
0.6078601808649994 0.6355908316916451 0.6775403865245291 0.7322057815793348 0.7976262262599536 0.8714436247644933 0.9509768816900744 1.033310772143814 1.1153993185896125 1.194182227994217 1.2667110761501603 1.330279860297717 1.3825526214761856 1.4216794237685524 1.4463913862519568 
0.6394203413320003 0.6633706547875541 0.7005666514686595 0.7497934990562419 0.8093758364575411 0.8772106852651315 0.950819261177635 1.0274204969975669 1.10402757178124 1.177566448159074 1.2450126192379254 1.3035393336060865 1.3506679351828583 1.3844090538806828 1.403382576458811 
0.6676624758439694 0.687435531146255 0.7194876005200442 0.7629279364360315 0.8163927932278584 0.8780499176175567 0.9456280319747477 1.0164761600153425 1.087655260037045 1.156061367631691 1.218575676121211 1.2722331737502586 1.3143981329140937 1.3429324052673381 1.3563415203956235 
0.6926062800648999 0.707540740188272 0.7338153269549134 0.7709054876306406 0.8177929161867824 0.8729407183433887 0.934300485897082 0.9993580760685669 1.0652215787045085 1.1287506797407696 1.186721864671064 1.23601922529059 1.2738366429880599 1.2978743818717589 1.3065120720250492 
0.7142849489438264 0.723505277407136 0.7431792277136066 0.7731930870755231 0.8129122125494818 0.8611261213876859 0.9160329118474506 0.975271663163872 1.0360071957938048 1.0950662783020633 1.1491186194816492 1.1948904548259365 1.2293939128182698 1.2501522457757526 1.2553998977910035 
0.7327599462503006 0.7352603617960481 0.7474055293649177 0.7695350037004821 0.8014360663401285 0.8422583411786172 0.8904752976770287 0.9439030433884985 0.9997815977999017 1.0549175515498521 1.1058803217283524 1.1492378780290027 1.1818125986438597 1.2009344876424897 1.2046678362848149 
0.7481588844418706 0.7429123194028119 0.7466019257152479 0.7600554373537539 0.7835153427699825 0.8165231907395444 0.8578580796697707 0.9055413691480776 0.9569135551338512 1.0087820352727737 1.0576309220865552 1.0998769850019965 1.132150046771406 1.1515724390224533 1.1560109432014674 
0.7607283180832142 0.7468087480993474 0.7412338122152317 0.7453415363406405 0.7598527906892886 0.7847262284260749 0.8190740394553436 0.8611520530484047 0.9084308344619868 0.9577463851196446 1.0055207162658744 1.0480348390908945 1.0817304857999877 1.1035128955218871 1.1110257878368457 
0.7708898898091688 0.7475947870550094 0.7321778252199211 0.7264919443188927 0.7317447859522485 0.7483261662904537 0.7757019481814159 0.8123891620493505 0.8560196821673225 0.9034910538612547 0.951194095054461 0.9952986352906097 1.032072135909559 1.0582017328164852 1.0710889886013528 
0.7792865989654979 0.7462461080940105 0.7207396041487146 0.7051185032874973 0.7010671178146587 0.7094056500032185 0.7299637810292076 0.7615407962370194 0.801960162502895 0.848217267491889 0.896709596191477 0.9435299686673619 0.9847965516917982 1.0169889782685708 1.037258596934385 
0.7868063156226568 0.744067077929338 0.7086258967606982 0.6832931462689483 0.6701989114520479 0.6705756243554818 0.6846138282045661 0.7114078268619348 0.748999670069305 0.7945204338872226 0.8444180566982724 0.8947521138063365 0.9415288265396026 0.9810451015095134 1.010209013806192 
0.7945720901159964 0.7426462981086089 0.6978660580067523 0.6634379120345836 0.6418853989019112 0.6348165498706838 0.6427651903436934 0.6651232931947823 0.700173262459611 0.7452194811438712 0.7968087118303423 0.8510200196893795 0.903797755916013 0.951296583342379 0.9902060678751128 

0.2171091041886951 0.27347556335766476 0.3527431517037246 0.4517611826029594 0.5665458017620603 0.6925191268373617 0.8247686079470454 0.9583098365938099 1.0883371732431923 1.2104485487432153 1.320833388669349 1.4164155846721407 1.4949465885092832 1.5550468607565708 1.5961969287594617 
0.2579370135825554 0.3092954681063883 0.38292458486175773 0.4758694728158326 0.5843918199086732 0.7041925269656495 0.8306512780208155 0.959068070515138 1.0848929845007436 1.2039323764983352 1.3125220213610524 1.4076602983584823 1.4870971672752273 1.549377289565999 1.5938381375278685 
0.3017754918956411 0.34807993971885753 0.41591440807941915 0.5025327682393476 0.6044581473689349 0.7176862943066592 0.8379028830667021 0.9607018384699247 1.0817930673645155 1.1971897197448218 1.3033670902329155 1.3973873477604908 1.4769863470181055 1.5406207750799537 1.587475802651951 
0.34741288151014593 0.3888976438748287 0.4510715792795704 0.5314013708286094 0.6266757834632726 0.7331877404478399 0.8469278749343346 0.963778880472597 1.079701241851144 1.190902409688039 1.2939830255375182 1.3860553063265164 1.4648301184742931 1.528670627435711 1.576611745781618 
0.39386081434837883 0.4309509427056605 0.48779550069342414 0.5620729974954889 0.6508343704965035 0.7506623517482934 0.8578406211270726 0.9685244086867236 1.0789053252290621 1.1853643248109367 1.2846077161443525 1.3737819994428166 1.450564042325741 1.5132238095991126 1.5606576417418534 
0.4403399729930576 0.47354308758421826 0.5254773521392959 0.5940313651555874 0.6765116530625818 0.7697783319688449 0.8703898513643564 0.9747508521380643 1.0792580353269883 1.1804396027780042 1.2750842307425128 1.3603556988962375 1.433889327118993 1.4938664314527554 1.5390632784270828 
0.4862378939979556 0.5160303982241943 0.5634495309779264 0.6265956201606365 0.7030255659546732 0.7898640479335218 0.8839242569127158 0.9818345313802003 1.08016777030533 1.175570594606226 1.2648889372689167 1.3452861599156316 1.4143491079603017 1.4701769626626828 1.511447567107334 
0.5310501698933983 0.5577712894835939 0.6009450572209167 0.6588919824317535 0.7294193689409286 0.8099074002122889 0.8974064430387915 0.9887442364711494 1.0806416299101178 1.1698349677861617 1.2532021609351078 1.3278881224791417 1.391423847781772 1.4418322924886224 1.477713646903681 
0.5743183759182283 0.5980844977719516 0.6370778710025223 0.6898567383350506 0.7544868812888521 0.8286018781768579 0.9094775567585142 0.9941215107311747 1.0793779324573336 1.1620466842344852 1.2390136431086298 1.3073871840825966 1.3646335669401384 1.4087023425798657 1.4381320435201705 
0.61557808265449 0.6362275302269867 0.6708523757465429 0.7182760662906026 0.7768403611833598 0.844438958188993 0.9185695240540869 0.9964071051300403 1.0749005541285395 1.1508914301602315 1.2212520578694743 1.283036434799842 1.3336348923191466 1.3709212924086054 1.393380472706705 
0.6543283750982419 0.6714033182316863 0.7012066019014987 0.7428634634463721 0.7950183567274794 0.8558410489467388 0.9230564336920082 0.9940030434576644 1.065723091321522 1.1350837757525185 1.1989258877554834 1.2542319280040726 1.2983024955679392 1.328927161591992 1.3445348215063446 
0.690030610384743 0.7027986492477917 0.7270884268137044 0.7623702754486387 0.8076254831266674 0.8613239462253083 0.9214317413315497 0.9854555088961815 1.0505275082181051 1.1135311459649961 1.1712621416940614 1.220615831458188 1.258787028737812 1.2834659328898197 1.293012262094099 
0.7221391883384721 0.7296527321242677 0.7475589929392851 0.7757196466025017 0.8134911845260004 0.8596733282635242 0.9124941741873459 0.9696407735480567 1.0283399057019205 1.0854887675652156 1.1378297223018143 1.1821577761946682 1.2155447667842836 1.2355609748482745 1.2404735074607705 
0.750161553964022 0.7513489202901781 0.7619125203651923 0.7821497834555721 0.8118307519086688 0.8501167675758884 0.8955229679739801 0.9459350089428473 0.9986855713844892 1.050690215303553 1.098635652933519 1.1392072642291553 1.169337426954828 1.1864526562620816 1.1886961564366256 
0.7737392819471897 0.7675179309463737 0.7697978189174794 0.7813494027046728 0.8023897493226021 0.8324715177633188 0.870422720287188 0.9143492790270197 0.9617066653657721 1.0094400105047348 1.0541847332988437 1.0925127666898136 1.1212036960490694 1.137516270116682 1.1394343361648618 
0.7927376998701887 0.7781375692584157 0.7713245904126899 0.7735671315180492 0.7855529569359762 0.8072492503975993 0.837819883050377 0.8756134075097953 0.9182287452955794 0.9626578250833779 1.0054963290520988 1.043206105150246 1.0724065782264374 1.0901683960397022 1.094281117510595 
0.807328776225941 0.7836125628421469 0.7671375148281602 0.7596777589727947 0.7624011612127807 0.7757020427452811 0.7990967157999764 0.8311966201938784 0.8697666664609213 0.9118680026265976 0.9540756898762489 0.9927536444252555 1.0243625954364055 1.0457725010945274 1.0545494048176338 
0.8180514158974245 0.7848189703027002 0.7584433259595267 0.7411916537923106 0.7347035383029931 0.7397990762062695 0.7563541259984162 0.7832585834407622 0.8184658812334177 0.8591330113820969 0.9018411629597061 0.9428785424652774 0.9785600439640932 1.0055539567785443 1.0211843903223832 
0.8258350749158544 0.783100793445453 0.7469804978536313 0.7201991281843559 0.7048396385205234 0.7021302677400679 0.7123017526753711 0.7345311991373965 0.766981338640634 0.8069346860588176 0.8510126193261028 0.8954606332100469 0.9364739328965315 0.9705329294794778 0.9947166266608921 
0.8319766129594106 0.780211626142726 0.7349273761081373 0.6992485201046758 0.6756524828067345 0.6657407664450888 0.6700812357007188 0.6881386301107436 0.718302470785473 0.758012224253558 0.8039700118118017 0.8524223136349881 0.8994849660133863 0.9414810798051467 0.9752598586614757 

0.18062447994135844 0.2298033621493295 0.3032791316155994 0.39808709788399355 0.5103710453922737 0.6356149619764666 0.7688970400091892 0.9051498298563363 1.0394115370217294 1.1670553152050522 1.2839857826258743 1.3867946623234038 1.472870239172412 1.540458101052936 1.5886732936333852 
0.21799735987775892 0.2623498199058305 0.33047345100125947 0.4195843739422874 0.526052779577275 0.6456195086711907 0.7736317304725348 0.9052832806321212 1.0358464512374 1.1608838245887467 1.2764308846211128 1.3791424387581417 1.4663982020905242 1.5363651510773635 1.588016405049577 
0.2598380272511127 0.2994762043390907 0.36219125077467607 0.44539170778735193 0.5456914580856154 0.6591082304810448 0.78127817915775 0.9076740677930952 1.0338158781175035 1.1554643161224272 1.2687895046631716 1.3705089811823532 1.4579908801870038 1.5293198482320762 1.5833248351012243 
0.30524574409242156 0.3405388089718473 0.3980503242277045 0.4753841030077668 0.5694037025113355 0.676410686557684 0.7923363219932643 0.9129364091023716 1.0339802156232336 1.1514259047907305 1.2615762483685677 1.3612096971541017 1.4476830214320784 1.5190027749575545 1.573863863304716 
0.3534482161726983 0.38492342729863616 0.43759974628184284 0.5092743388027869 0.5970590496026933 0.6975368833734955 0.8069298947430555 0.9212704750631053 1.0365691824017635 1.1489733573123293 1.2549116694714106 1.3512204078235444 1.435247804535165 1.5049330837058044 1.5588573996845523 