# vtk DataFile Version 3.0
vtk output
ASCII
DATASET STRUCTURED_POINTS
DIMENSIONS 15 20 65
SPACING 1 1 1
ORIGIN 0 0 0
POINT_DATA 19500
SCALARS Image float 1
LOOKUP_TABLE default
1.0421620592186094 1.0363100844507258 1.0367036798999947 1.0421635897293409 1.0512098088745248 1.062463134124341 1.074941455538631 1.0881914759576117 1.1022397652197085 1.1173895766273279 1.1339222973673235 1.1517787328159135 1.170293990500229 1.1880431597410117 1.2028290189859416 
1.058744665923977 1.0571197746216208 1.0619114690869003 1.0717166765713548 1.0848866919743054 1.0999369411164115 1.1158400647397562 1.1321503879332828 1.148950166188185 1.1666474114524594 1.1856832958289845 1.2062194478264463 1.2278715624843928 1.2495391611952305 1.2693580272578064 
1.0689343657505015 1.072529470566608 1.0827807371004101 1.0980787312443065 1.1165941544302471 1.1366929957432925 1.157229050097094 1.1776692671417246 1.1980479058998776 1.2187809930060098 1.2403960239535288 1.2632399995827883 1.287222734106057 1.3116362570583564 1.3350711535796391 
1.0708090116839557 1.0797404286291483 1.095654016558448 1.1167762110008137 1.141105493168117 1.1668279195766784 1.1926105537024054 1.2177357071235875 1.2420765711282344 1.2659456048701043 1.2898651826204686 1.3143137960482778 1.3394928476890255 1.3651438847544748 1.3904301398367969 
1.0641021780942554 1.077594240581119 1.0985099179136872 1.124972565023354 1.1548330426110214 1.1860791619664424 1.2171305312821958 1.2469892036024017 1.275250326181508 1.3020021873938412 1.3276573314692794 1.3527556303413588 1.377769957984671 1.4029312563991192 1.4280784091617587 
1.0501536350149898 1.066649955291475 1.0911582594140177 1.1217729943944694 1.1562348912007618 1.1923270381236222 1.228170702476941 1.2623988539402982 1.2942142957101352 1.323358128430223 1.350020165070816 1.37471734563013 1.3981540522829916 1.421066031165743 1.444043387306391 
1.031458344831634 1.0488290868491075 1.0749701258598234 1.1080296413980766 1.145686752443952 1.1855265428268802 1.2253353321688358 1.263301791466798 1.2981327737987485 1.3291045034056248 1.35606883745604 1.379423762371855 1.4000432714771334 1.4191514736934214 1.4381250692124123 
1.0109584165644583 1.0267589917970241 1.052261518902053 1.0857558176855655 1.124918848169545 1.1671608298493013 1.2099170282190812 1.2508786157112872 1.2881729688614363 1.320507989232742 1.3472869516225459 1.3686846856659765 1.3856600065124935 1.399871029092322 1.4134650325282851 
0.9912897368388689 1.0030240392796683 1.0255399331231545 1.057360265694905 1.0962316441605342 1.139433607229856 1.1840621490715149 1.2272890899936053 1.266609034370999 1.3000820341148953 1.3265646333358683 1.3459010076402786 1.359028087332949 1.3679422711539144 1.3754861276218469 
0.9742012413793831 0.9795512898549424 0.9968512377870046 1.0249509639482821 1.0617530059926006 1.1044764101421656 1.149924913829913 1.194769488303768 1.235858679737816 1.2705586329075376 1.2971018163734498 1.3148971676281238 1.3247345072266279 1.3288116204333864 1.3305287337008775 
0.9603082265459656 0.9573084624658542 0.9674223349385833 0.9899226218879273 1.022970192230595 1.0638236206782494 1.1090822959348352 1.1549822316339526 1.1977605084473526 1.2340849205270297 1.261515187579905 1.2789304283428864 1.2868355109523892 1.2874559570088788 1.2845524788135514 
0.9492379818931375 0.9363912507286376 0.9376959403726268 0.9529438817954599 0.9806726307384199 1.0183112405393477 1.0623857786691286 1.1088138527628122 1.1533078277776068 1.1918795907573925 1.2214023666107952 1.240148075174297 1.2481942119743372 1.247592339044192 1.2422160447815807 
0.9401061759827982 0.9164540250644994 0.9077267493177422 0.9143284725298753 0.9353046502289848 0.9684136891701045 1.010279767112996 1.0566672644132804 1.102901928387515 1.1444300961610112 1.1774631251659864 1.1996118772603872 1.2103889068341946 1.2114545487140864 1.206512324111405 
0.9321607945651341 0.8973287591373965 0.8777906542101042 0.8746479846300927 0.8875915045313061 0.9148878716527499 0.9534626580965281 0.9991325366269351 1.0470192136785905 1.0921375421445614 1.1300996535310106 1.157829449009176 1.1741516152555116 1.1801176135543818 1.178962668396033 
0.9253770232211743 0.8796140478556145 0.8489854840169572 0.8353600270544592 0.8392071477608375 0.8594879127400691 0.8936500338681637 0.9377937307579085 0.9870506197477752 1.0361720680814122 1.0802669099790405 1.1155758495032397 1.1401364218086847 1.1541896362740154 1.160212148095955 
0.9207975856913961 0.8650185774418703 0.823595195607178 0.7992096073942515 0.7932266623789619 0.8054786138178395 0.8341543073483018 0.8758745307380998 0.926007574668207 0.9792283761498821 1.030262628287093 1.0746997512918504 1.1097215972115895 1.1345891994589505 1.1507624933388998 
0.92048635961128 0.8563117086644095 0.8050526376629094 0.7702194702559746 0.7541585718076906 0.7577221197932641 0.7800352850458668 0.8184588302225794 0.8688150074989749 0.9258897655229396 0.9841573520443819 1.038611176818997 1.0855439573561463 1.1231130523226789 1.151558178390169 
0.927078040432948 0.8568490600974079 0.7974517235521031 0.7532013225366214 0.7274686846654808 0.7222284104964599 0.7376911988877947 0.7721355011081905 0.8220218111990747 0.8824144762231567 0.9476645457213069 1.012240439845035 1.0715483708522577 1.1225741306516763 1.1642067271721788 
0.943030159714358 0.8697702541228424 0.8046953628696245 0.7528617949616077 0.7186552451139521 0.7052139688697656 0.7139181108267858 0.7440781650663776 0.7929223054138759 0.8559208853444497 0.9274110650059395 1.0014135147456997 1.072484208569624 1.1364302947880618 1.1907445798905782 
0.9697797713751398 0.8970717923357134 0.8294818188634754 0.7727041731245807 0.7320731395410013 0.7118612021303838 0.7146230381187564 0.740735956738457 0.7882532161286764 0.8531226107784696 0.9297438220118434 1.0117630381516158 1.0929503546554713 1.167987427165905 1.2330144383798642 

0.9991335799812194 0.9871448956934458 0.9841501087510797 0.9898005759353316 1.003076636518731 1.022613312222985 1.0469809124446692 1.0748628748274691 1.105107304905524 1.136663674196375 1.1684437026874201 1.199160111135135 1.2271970182409946 1.2505533725280946 1.2668807944257598 
1.0186386939773437 1.0108764912104469 1.0125158559008502 1.0228670903736277 1.040613279223272 1.0641631170937584 1.0919459919368266 1.122596312326227 1.1550079460634635 1.1882724958266409 1.2215395892985323 1.2538491146550759 1.2839838565009167 1.3103791321088436 1.3311087927148306 
1.0311950243734618 1.0290242136541012 1.0367240857145816 1.0532361640936196 1.0768952112977326 1.105812574529907 1.1381926081947822 1.1725331584246828 1.2076942627019163 1.242849651117826 1.2773569011010069 1.310591089218363 1.3417840574662447 1.369900498336876 1.3935680368552599 
1.035055983446859 1.0390280170123312 1.0533840021900518 1.0767016406130283 1.106947368923236 1.141889479653422 1.179439497141808 1.2178765163705867 1.2559410818646697 1.29281274061495 1.3280032209546409 1.3612033626720574 1.392118072827865 1.4203138761214134 1.4450931698213796 
1.0301026202460788 1.0398877735210086 1.0606111534906328 1.090522187398311 1.1272291135861592 1.1681372926347957 1.2108158471892494 1.2532511982868595 1.293975952818691 1.332085685522035 1.3671700925670485 1.3991880973102155 1.4283114526961265 1.45475300629114 1.4785891865070828 
1.01779270292039 1.0322386897201952 1.0582245537102752 1.0937347553518693 1.1360580931030193 1.1822431720459332 1.2294873301717337 1.2754219989315407 1.3182846414310254 1.3569873363502274 1.3911015406381653 1.4207781744572123 1.4466157204328294 1.4694819605688831 1.4902924243788258 
1.0007295714812445 1.018023394979524 1.047513735556952 1.0870080159842497 1.1335414718098094 1.1838387386818752 1.2347188515226422 1.283411980930796 1.3277799336058962 1.3664474480091457 1.398855622514857 1.4252443725731703 1.446562575833987 1.4642986655631558 1.4802260622662193 
0.9819752493669195 0.9998693555622099 1.0306704231204273 1.0721181636293426 1.1210859790359329 1.174035080859401 1.2274261904369153 1.278063786352472 1.3233673953072846 1.36157374092861 1.391871967541217 1.4144650189065813 1.4305397537675524 1.442123407321799 1.4518098444142713 
0.9643012432870212 0.9803600509676709 1.0100705136994181 1.0512319896214795 1.100672469047264 1.1546795603761222 1.20940648401454 1.2612362693137409 1.307102086803233 1.3447645578555336 1.3730386415256604 1.3919481874580988 1.4027729491497658 1.4079484758712368 1.4107892666661366 
0.9495855428246351 0.9614143017962635 0.9876288500521418 1.0262297430128053 1.0741390859134885 1.1275911427383862 1.1825173917489296 1.2349192640882949 1.281231249545007 1.318672929032433 1.3455729270625014 1.361627239953364 1.368037751089611 1.3674725706241189 1.3638037324759984 
0.9385203428116289 0.9439522307054604 0.9644210115452857 0.9982793601897426 1.0427032951869841 1.0940241513548892 1.148074996806453 1.2005567236215928 1.2474328598159727 1.2853505093220607 1.31206137642263 1.326789693817501 1.3304733506054993 1.325800103200408 1.3169782488956612 
0.9307035946565794 0.9279382395332528 0.9406808252173201 0.9677901076326647 1.0068711244726867 1.0545299155510337 1.106661691925022 1.1587916669319718 1.2064857920252117 1.2458291841561726 1.2739383050114557 1.2894387711420936 1.2928158065897093 1.2865392267403608 1.2748854730513657 
0.9250742135683396 0.912776040503536 0.9161639436282382 0.9347515814651544 0.9667556363599827 1.0092550863322776 1.058400407021899 1.1097078232127666 1.158466001251102 1.2002552141184684 1.2315388217793446 1.2502454075976708 1.2562303275283873 1.2514991142924736 1.2400983398644738 
0.920548055439468 0.8979214950596368 0.8907509975100275 0.8993388271649321 0.9226926103522937 0.9585722705143104 1.0035994795897625 1.0534823900690027 1.103395144103842 1.1485165281980825 1.184683532246047 1.209066666745288 1.220739336366289 1.2210055852057549 1.213375490689529 
0.916649680381357 0.8835079724178412 0.8650829815265256 0.8625729546315769 0.8759389463204702 0.9038248013435402 0.9435472629328683 0.9912280556465127 1.0421213715266 1.0911476471179857 1.1335877654003925 1.1658356317095977 1.186067422359245 1.194675699487768 1.1943425159199537 
0.913932335404926 0.8707678371591485 0.8410013056783039 0.8267966952754319 0.8291991592202328 0.847916706339463 0.8811739465236046 0.9257298888434099 0.9771287117102075 1.0302030244373162 1.0797847426247658 1.1215155600667752 1.1526042691039327 1.172365541027718 1.1824007789207498 
0.914037519728498 0.8620872116291179 0.8216128379467886 0.7957662405270494 0.7867607818492182 0.7955074272474865 0.8213190678931142 0.8617956904865446 0.9129759556961907 0.9697852070221039 1.026738587020784 1.078788353162524 1.1221548238561172 1.154964857589561 1.177546922393142 
0.9193500998298969 0.8606353318567928 0.8109041538862497 0.7742642196315102 0.7541223057677215 0.7526723827964439 0.7704426624133336 0.8060348205936791 0.8561582231921226 0.916001134393887 0.9799034445392018 1.0422200887409918 1.0982100105483272 1.1447668387982395 1.1808308734380273 
0.9323257473516292 0.8696356006971799 0.8129604971378164 0.7672756607263795 0.737139804079098 0.726037953208208 0.7357695284032785 0.7660348049555985 0.8143398390006028 0.8762746840994781 0.9461371307460388 1.0177938360679173 1.0856121259646487 1.1452737371829105 1.1943026848505938 
0.9546696576444978 0.8914568957175356 0.8309665014472689 0.7789008813506235 0.7408610806446676 0.7215523492195961 0.7240182608556376 0.7490751364829338 0.7950834168592491 0.8581238487854647 0.9325595988399095 1.0118808974921227 1.0896664462992822 1.1604704276363924 1.2204617381769463 

0.9561893903587668 0.937385827526407 0.929962330102609 0.9344871237008241 0.9505265639461853 0.9768788328528133 1.0118189799645125 1.053302634424437 1.0991008191493714 1.1468652119169962 1.1941448194120845 1.238386636170778 1.2769530219661036 1.3071790730930961 1.3264783620079839 
0.975148275755748 0.9601924654868099 0.9572806875330265 0.9665459224737737 0.9871534061975427 1.0175763154939421 1.0558692743965628 1.0998895316297685 1.1474409661351723 1.1963415903310566 1.2444346148312593 1.2895727259191383 1.3296045638731129 1.3623839387523233 1.3858103427031379 
0.9860070956576116 0.9766720299190877 0.9801245666143048 0.9959837876196966 1.0229158498084434 1.0589620367921166 1.1018527932117608 1.149258611021116 1.1989541452882173 1.2488962742826146 1.2972343954022731 1.3422793294514188 1.3824562260678384 1.4162598211222845 1.4422215685255309 
0.9874455047933703 0.9847859801366746 0.9956799297608261 1.0191929805216478 1.0534349878827949 1.095945001361612 1.1440527034881791 1.1951674328734487 1.2469714697037801 1.297517415318712 1.3452453581484807 1.3889422557103124 1.427664835827947 1.4606418201724076 1.4871656728554727 
0.979770419027987 0.9839993094808444 1.002527383889571 1.0338687682114893 1.0755635119079807 1.1246179290456813 1.1779147247094472 1.232544286225501 1.286033852323908 1.336472977661156 1.3825476218636386 1.4235003834781967 1.4590329552127677 1.4891627961059895 1.5140436040750722 
0.9648293593647668 0.9753151974442273 1.0007984684678464 1.0392860441869205 1.0877795578986524 1.1427635458663066 1.200659833902321 1.2582006673207293 1.3126977361500585 1.362203979717944 1.405576456014579 1.4424516541323897 1.473142383895972 1.4984623732313138 1.519485353838693 
0.9455740946538285 0.9609454693144954 0.9919484596241279 1.036168379208461 1.0901443582228034 1.149892007101879 1.2113920781174892 1.2710003686857685 1.3257574979187845 1.3735941891372785 1.4134357268642954 1.4452093977101348 1.46975493991086 1.4886355882436804 1.5038508327147855 
0.9253819891842581 0.9437072525993001 0.9782205008056826 1.0262101137144213 1.083871366158612 1.146845236947353 1.2107262023726957 1.271499306770651 1.325888222549228 1.3716093323652916 1.4075304514056595 1.4337289167048834 1.451437522301245 1.4628642838794716 1.4708782205638626 
0.9073089899398202 0.9263124231698789 0.9619624315921661 1.0114096658978957 1.0706636398873224 1.1351250659192524 1.2000931142769447 1.2612157666756287 1.3148701070017608 1.3584679560707393 1.3906801637355766 1.4115637385077093 1.4225662653241922 1.4263788369099033 1.4266173791750707 
0.8934689477513523 0.9107474678090124 0.9449992625652887 0.9934246282972452 1.0520397622682869 1.1161768582574043 1.1809675052663355 1.2417886044965352 1.2946651378396796 1.3366268082744275 1.3660065321320463 1.3826531554538806 1.3880165356443126 1.3850585083196052 1.377954137862679 
0.884701210770283 0.8979167779130414 0.9282475808271125 0.9731503887248798 1.0288675192337946 1.0908670893665817 1.1542766514829093 1.21430376670798 1.266647852356453 1.3079033769916917 1.3359372916862098 1.3502003599850672 1.3519123837047615 1.3440546938254827 1.3311161404079772 
0.8806094978378864 0.8876474223291825 0.9116865437426979 0.9506552265576549 1.0012582815808255 1.0593294165279692 1.1201879255690723 1.179010701223128 1.2312364112944716 1.273006535963415 1.3016216117979404 1.3159592338171908 1.316774500045426 1.3067944309409811 1.2905324868236525 
0.8799509018797895 0.8790482354697791 0.8946929107844982 0.9254948448393564 0.9688616861184192 1.0212367655965149 1.0783518474257554 1.1355261674587709 1.1880434380955793 1.2316177556056853 1.2629230911576763 1.2801200106081663 1.2832806606918457 1.2746009822613522 1.2583051289683693 
0.8812534966040918 0.8711101906208978 0.8766351185634749 0.8973093274947406 0.9314719769043618 0.9764199938892778 1.0285316796223023 1.0834685116603526 1.1365036596224942 1.18299597933068 1.2189816963292492 1.2418053863662293 1.2506722408481052 1.2469883302409597 1.2343726685663647 
0.8834733512808313 0.8633592753164401 0.8575365261606891 0.866510549992763 0.8897515154428453 0.9256363571915895 0.9714214533384362 1.0233245959993187 1.0767831528965577 1.1269164821164759 1.1691638135938984 1.2000086931634149 1.217654466620092 1.2224966617694304 1.2172558674269034 
0.8864872275722818 0.856350466875991 0.8385864482079725 0.8348268518704138 0.845825257752515 0.8712281258866825 0.9093797377844001 0.9572650112140333 1.0106764345221209 1.0646437364898405 1.1140981808146557 1.1546741776049547 1.183497578488475 1.1997880283513476 1.2051206473599287 
0.8912615428542975 0.8518302544135927 0.8223105608764787 0.8054983115753397 0.8035194330707837 0.8174233176685263 0.8468095484363852 0.8896170700864018 0.9421817147862888 0.9996122060039797 1.0564589650009135 1.1075725588169263 1.1489891370048042 1.1786549078032598 1.1968192136642672 
0.8996301850799778 0.852486245586461 0.8123024956252873 0.7830051250601731 0.7681052961778034 0.770115945147507 0.7899971395200128 0.8267833299317642 0.8775176839763572 0.937555694745773 1.001216530153023 1.0626759025972101 1.1169293278491794 1.1606261963704858 1.1925916101263452 
0.913728175857447 0.8613211138097505 0.8125419687347819 0.7723401132886311 0.745542154059201 0.7361007581451559 0.7463633541431911 0.7765364374908823 0.8244888569937947 0.8859684388788132 0.9552160499790765 1.0258706229999093 1.091989232324843 1.1489749337587556 1.1942200429668426 
0.9352325252733765 0.8808011655132121 0.8264473875182556 0.7779690792715129 0.7413567891737622 0.7218902879419076 0.7232431616276875 0.7467909487125142 0.7912826221531082 0.8529615041610492 0.9261264733340423 1.0040292904597068 1.079930893428823 1.1481054796964774 1.2045940433140745 

0.9149446570805705 0.8896246841590535 0.8776267050532405 0.8804421298663012 0.8982884044943582 0.9302412665452964 0.9744275481741805 1.028233764321802 1.088502417715305 1.1517067756913795 1.2141099375625635 1.2719214718350458 1.3214637701796161 1.359352341741825 1.3826833110922139 
0.92962638507411 0.9075479575376544 0.8997049384087511 0.9070839253400597 0.9294252530669463 0.9654074899346756 1.0128783512259405 1.0690883299913723 1.1309005181775762 1.1949680014285318 1.257883661879392 1.316313301073957 1.3671215871967721 1.4074937870253337 1.4350483448424727 
0.9346369620364802 0.9179769268130062 0.9165864369170738 0.9308145398657539 0.9597743122742317 1.001597488774122 1.0537215617140332 1.113164231978362 1.1767581684916935 1.2413367727992153 1.303874408437023 1.361590187267951 1.4120234941326573 1.4530847302575294 1.4830799956035683 
0.9293195591560681 0.9196494075453177 0.9263045440477133 0.9489077275687368 0.9858436956166658 1.0345945975649835 1.0920944441484386 1.1550545772457466 1.2202314469184614 1.284626014780433 1.3456167001095616 1.4010334302484047 1.4491802338403499 1.4888110207534 1.519061407955585 
0.9146596892150993 0.9127665490326042 0.9281902063047412 0.9597897585756796 1.0051771183977252 1.0611358141695448 1.1240461797339796 1.1902657824309868 1.2564345466478137 1.3196924712657676 1.3778103191274058 1.429239244647168 1.4730857851019135 1.509017439857723 1.5371049079079988 
0.8931309585394764 0.8989511695144166 0.922948782848423 0.9632381882567572 1.0166751355716712 1.0793529560738508 1.1470937539720611 1.2158812147873121 1.282203500482353 1.3432932750033153 1.397263814427119 1.4431450902579026 1.4808240868946387 1.5108933747533013 1.534414977464236 
0.8682308345360045 0.8808906894088833 0.9124102961359898 0.9602366892112033 1.0205487213464295 1.0888163636246369 1.1603451824292121 1.2307525674713549 1.296344960086972 1.3543833594038714 1.4032347939101228 1.4424106540046444 1.4724920076141332 1.4949418754915629 1.5118091266404625 
0.843800129221856 0.8617408728723542 0.8990127058034167 0.9525298470395309 1.0179344063050575 1.0901966677844637 1.1641927935172178 1.2352096107709931 1.299349050617109 1.3538212392271913 1.3971228080304798 1.4290970172811965 1.4508690276655942 1.4646485982397022 1.4733983566077693 
0.8232799043036829 0.8444348233101625 0.8851552385268537 0.9420094744440716 1.0102989659755168 1.084670827632761 1.1597024657782533 1.2304149514642602 1.2926941409348105 1.343612019641162 1.3816438149145749 1.4067715688472795 1.4204576262139896 1.4254684867818925 1.4255361116247816 
0.8090824475653735 0.8310739302360679 0.8726009540793909 0.930116656419765 0.9988254221665328 1.0732740550103856 1.1479122027056345 1.2175902743268283 1.277983673845523 1.3259411653840987 1.3597519447330417 1.379314460649887 1.3861773176584589 1.3834166645468526 1.3753215785027249 
0.8022296015864342 0.8225619307966252 0.8621001069184697 0.9174441713081746 0.9839807930821153 1.0564163869155856 1.1292792872756605 1.1973753702113379 1.2561992521871286 1.3023060628226972 1.3336374189665385 1.3497752963240326 1.3520779411423263 1.3436422917805195 1.3290447583403135 
0.8023455773304802 0.8185814268285989 0.8533479205755254 0.9036695169626462 0.9654148994540495 1.0337347185242487 1.1034705379497054 1.1695399745040551 1.227316721670168 1.2730193336506836 1.3041014919157665 1.3196066560649453 1.3204224938762978 1.3093564572963698 1.2909614327588028 
0.8079986140461043 0.8179192554854777 0.8452963946840977 0.8878529396632764 0.9422412421835652 1.0043499357492198 1.069585961450322 1.1331612834572689 1.190422349397701 1.2372465069100484 1.2704973123757461 1.2884898434046494 1.2913809090206725 1.2813803079068635 1.262687015773129 
0.817291262333475 0.8190481711587227 0.8367353206868415 0.8690238513290973 0.9136324729810804 0.9674721198196857 1.0267708623393392 1.0872361730069682 1.1443141136188333 1.1935811305168973 1.2312598617635213 1.2547978998062939 1.2634031852392462 1.2584061489989504 1.2433266406154861 
0.8285293380892979 0.8207955544132923 0.8269727395175113 0.8468847146099562 0.8795582464007953 0.9231807524311129 0.9750434951717281 1.0315569632427817 1.0884208612186044 1.140996643737932 1.184873900565543 1.2165577186153642 1.2341499329297156 1.2378689525316309 1.2302609671210947 
0.8407755360385315 0.822898456506101 0.8164053253116985 0.8224123255008766 0.8414336324429371 0.8731358011882691 0.9160820397418565 0.9675834404373447 1.0237628831101357 1.0798921766475453 1.1309942815198444 1.172627037167874 1.2017021927354763 1.2171610029131052 1.2203359284322983 
0.8541238944533389 0.826269282661129 0.8067883636521247 0.7981490235473732 0.8024513840352112 0.8209722289392132 0.8537019364262594 0.8990208301224047 0.9536434603738302 1.012903989964697 1.0713758793947958 1.1237334265559302 1.1656925948724146 1.1948322334007193 1.2111051019909023 
0.8696090771707368 0.8328730523342391 0.8010904027032317 0.7780501851666543 0.7674429789479086 0.772199060738052 0.7938191732793133 0.8318728316647183 0.8838140771194114 0.9452000349206408 1.0103077694491336 1.0730505422348786 1.1280181812784205 1.1714267637515874 1.201770930442264 
0.8887691190284497 0.8452255955590487 0.8029302737120924 0.7668712849094479 0.7422343536652001 0.7335486167638773 0.7438221511859184 0.7738672183770842 0.8219843148082635 0.8841017520371449 0.9543695407077492 1.0261050383963832 1.0929065691069615 1.1497092020923225 1.1935644803098193 
0.9129826901713907 0.8656324830490989 0.8157135670786717 0.7692067163659808 0.7326008385259706 0.711869540873876 0.7114315183605291 0.7333159093030391 0.7767179828555537 0.8380520609639589 0.9115046331832699 0.9899844068204099 1.0662814460694585 1.1342036740376245 1.1894657098687664 

0.8780879902873346 0.847560469857506 0.8317772077187887 0.833074855568295 0.8523188605926325 0.888932324380712 0.9410243565374349 1.0055833678679735 1.0787101539666075 1.1558768812405025 1.232206462796357 1.3027693893861945 1.362891459918939 1.4084580364146146 1.436192011016085 
0.8854930585740023 0.8575242480890846 0.8454185480992493 0.8509644222989206 0.8745052574229619 0.9150256794035441 0.9703228230370156 1.037228331410904 1.1118568498005568 1.1898673604185106 1.2667307921112614 1.3379988934873281 1.3995657919262021 1.4479074637375962 1.4802790787032585 
0.8814290390692794 0.858546627814402 0.8528279596414453 0.865326522182516 0.8956591009032473 0.9421752025859086 1.0021959214132274 1.0722847901953867 1.1485245364853935 1.2267848069058283 1.3029731801788123 1.3732637290648089 1.434294981832279 1.483325153740288 1.518330420703113 
0.8660789689173594 0.8503230159080559 0.8530743114861663 0.874511796029682 0.9133767808016743 0.9672428835702709 1.0328388152591708 1.106381037373668 1.1838867991603323 1.2614507215378588 1.3354765084353062 1.4028585107975415 1.4611071022823103 1.5084101257030356 1.5436233803481811 
0.8412861568541389 0.8339804141260733 0.8464389370013299 0.8778863114978951 0.9261076724874979 0.9878267223928974 1.0591190044588106 1.135811154119499 1.2138329921836124 1.289504035051117 1.3597459644334062 1.4222170922117137 1.4753655708300217 1.5183982368812328 1.5511648767505082 
0.8103064188410806 0.8119306865224944 0.8343815779696533 0.8759187869061938 0.9333672061765981 1.002599823234479 1.0790375912034467 1.1581115505940969 1.235651530057341 1.3081825536846148 1.3731213451380553 1.4288706059869372 1.4748101581934228 1.5111851396773797 1.5388957496740816 
0.7772988842525137 0.7874658937720873 0.8192454845782011 0.8699966399646742 0.9356604467059648 1.0113336735911622 1.0918409402406517 1.1722477352719782 1.248278422853129 1.3166217472336328 1.3751179858501699 1.4228267743568592 1.459975420399945 1.4877883875096507 1.5082035072787083 
0.7466389296457532 0.7641620024574327 0.8037509133893144 0.862003436643582 0.9341327103515775 1.0146068840117783 1.0977696483158543 1.1783847327527648 1.2520716877434896 1.3156191502591505 1.367172294957694 1.4062938769216746 1.4338967322446865 1.4520448533766066 1.4636248167474466 
0.7221862531286147 0.745213323855864 0.7903901683619527 0.85376339342813 0.9300472830743897 1.0132958194265584 1.0975394538058438 1.1773354945615198 1.2482066952187774 1.306960478776612 1.3518886044610472 1.3828454788385953 1.4011975003852237 1.4096320485186202 1.4118185298371877 
0.7066625396092729 0.7328495021375814 0.7808757349836482 0.8465068932888847 0.9242494638417097 1.0080144350161857 1.0917320494747242 1.1698779599012787 1.2378970951129293 1.2925264560713292 1.332019996451156 1.356270503475323 1.3668113342137895 1.36667274871076 1.3600700881216694 
0.7012769438964097 0.7279778266807997 0.7757915692555208 0.840517479886401 0.9167911158647132 0.9986945019124766 1.08030697317715 1.156174348828475 1.2216989147386534 1.2734625429068827 1.3094893698747896 1.329437289194301 1.334687385729091 1.328286915585064 1.3147024499153193 
0.7056841185994962 0.7301445398186619 0.774552672165221 0.8350798728145051 0.9068529016764174 0.9844642986262597 1.0624166126762238 1.1355012826184654 1.1991348880465493 1.2496781247890127 1.2847468267799123 1.3034962177180216 1.3068298916056325 1.2974653401666782 1.2797874062139667 
0.7182801129831411 0.7378299603881996 0.7756990040048606 0.8287685231761235 0.893019778856829 0.9639001812885848 1.0366203383251338 1.1064108926811183 1.1687854690348722 1.2198494897882644 1.2566665096417406 1.277653013014493 1.2829323556258818 1.2745523312371676 1.2564691937316828 
0.7367561450982927 0.749003705551769 0.7774568796727626 0.8200178012512493 0.8738603389920572 0.9356129950753831 1.001473225847342 1.067314110326234 1.1288556777422625 1.1819558187948631 1.2230340970781866 1.2495875120773812 1.2607059656413577 1.2574625035123919 1.243050925285813 
0.7587623305201341 0.7617926034876584 0.7784202221155094 0.8078257303763265 0.8486616806507852 0.8990215139102443 0.9563432365688914 1.017343313781892 1.0780803126108838 1.1342185077183558 1.181505805156458 1.2164122318775352 1.2368130485492665 1.2425618001791752 1.2357957651516303 
0.7825029316322105 0.7750770440744315 0.7781597081618972 0.7923900506142778 0.8181082518118568 0.85509042459182 0.9022234979922231 0.9572508541547625 1.016715460132108 1.0761855063465393 1.1307774693662802 1.1759100288204214 1.208149924775376 1.225966773446351 1.2302110672330797 
0.8071020837528238 0.7888442665336863 0.777575160690219 0.7754762789757605 0.7846863820032136 0.8067948185892035 0.8422807162103566 0.8900632114432342 0.9473154175802725 1.0096409080429352 1.0716279556232577 1.1277030826369545 1.1731242425443746 1.2049055333593732 1.222462961947613 
0.8326415876355491 0.8041886025501156 0.7788667062887887 0.7603757051511868 0.7526517958831833 0.759125003369328 0.7819277135877394 0.8212513831003653 0.8750276834384169 0.9390451450141232 1.0075169044067447 1.0740110892359962 1.1325669280366837 1.1787680113338093 1.2105423605776173 
0.8598643964361685 0.8229440340754299 0.7850992304751696 0.751413965325566 0.7275034594339547 0.7185541937570853 0.7283185641282978 0.7582891173782942 0.8072488282784458 0.8713189465951887 0.9445206966763301 1.0197549561552948 1.0900103363653475 1.1495563308978667 1.194877060377537 
0.8896338073324765 0.8470381472540216 0.7994466419189648 0.7530916376544481 0.7150369129602147 0.6920302313373516 0.6893115566884336 0.7096245347603274 0.7526438099205724 0.8149481182674347 0.8905566452508777 0.9719284966404759 1.0512282460971294 1.1216057595231064 1.1782378229348893 

0.8489645265924919 0.8154243159107937 0.7974704237864096 0.798128517069628 0.8188420106726287 0.8594031185718918 0.9180098238036074 0.9914259514116537 1.0752251918037738 1.1641046301959406 1.2522553664385283 1.3337751561480806 1.4031009455005572 1.4554300850816246 1.4870915397544167 
0.8475644606477518 0.815939709701254 0.8011418014567837 0.8056328390377823 0.830323311134056 0.8745605231224463 0.9362281458920145 1.011934422875831 1.0972707578491914 1.1871264153159122 1.2760458360941105 1.3586114651485732 1.429828079774277 1.4854772377670153 1.5224062457160392 
0.8328556948656297 0.8059228598624142 0.7973168032711208 0.8086986381804164 0.8401881481473925 0.8904429463409547 0.9568322254013243 1.0356782756986558 1.1225447768619514 1.212555886171595 1.3007316491831855 1.3823226117031797 1.4531212402798 1.509722903780849 1.5497081678813842 
0.8059429713444427 0.7861050233387424 0.7861804676259261 0.8068404195000933 0.8472161929445435 0.9050936872281248 0.9771835115742614 1.059432409541687 1.1473501285829513 1.2363333464490505 1.3219719814290947 1.4003227639186429 1.4681320658271129 1.5229877778696121 1.5633817539842947 
0.7696013769287398 0.7586196862959015 0.7690556839183584 0.8004676237587387 0.8508782797593762 0.9170978763429186 0.995101297669132 1.0804160758985843 1.168489952113811 1.2550177073321018 1.3362136931570396 1.4090186708283703 1.4712290361331117 1.5215364421945117 1.5594694389224526 