# vtk DataFile Version 3.0
vtk output
ASCII
DATASET STRUCTURED_POINTS
DIMENSIONS 15 20 65
SPACING 1 1 1
ORIGIN 0 0 0
POINT_DATA 19500
SCALARS Image float 1
LOOKUP_TABLE default
0.8508820143401198 0.7677133175676658 0.933172325738526 0.6760797005264746 0.9090432112618851 1.1076467924680289 1.0584303286742425 0.7349258639599975 0.9366297174540761 1.0924034846464235 1.1415759181131282 1.0911265016316718 0.9331021222135955 0.8593011463421972 0.910744403825559 
1.0244225345286784 0.9963185978314609 1.2373874323058933 0.9833983152971073 0.8162760618849526 0.832758887322 0.7662266300255155 0.7054587080676122 1.0633524997933659 1.316325847799824 1.4018566705184115 1.4012173422852663 1.0837925083896875 0.9023129558610351 1.0451705484397738 
1.1760070892634018 0.9816287270510596 0.7818343447421338 0.6009371281520083 0.7380198552156777 1.2493371010878835 1.1778154519335007 0.666395405910368 1.0025618580618654 1.0243708836509695 1.3679037741353515 1.3668520218027282 1.0547352509118504 0.8312802872230832 0.9461832299970079 
1.2551953932221611 1.0841734651567192 0.6936127570906793 0.8836156297360827 1.0433746301630216 1.4654998384961413 1.1555164633376278 0.41882739424955306 0.7077528418167255 1.0153739205362415 1.2168122648141533 0.9664932259463448 0.797215311172169 0.836093051831256 0.793446471670649 
1.002547833378329 1.078850552975732 1.0428816517403465 1.1711831004463735 1.4873505601758321 1.4644523904547104 0.9396607110263776 0.427381968052742 0.850199820322247 1.3066357830534425 1.4007376725166898 1.2104583210809565 0.9762947957157888 0.875108131911821 0.7890599763184271 
0.850501365551006 0.9003647310321391 1.0235013108517181 1.1609322900919743 1.3641317289759636 1.5613906472955357 1.1596661524367087 0.7078038911245337 0.5652778882838939 0.8730529070448971 1.1133225844806045 0.8504065945674375 0.7797291189956433 0.8510985961678238 1.0751692347211195 
0.9394791546028457 1.1210449691510873 0.7543285233478566 0.9317906525117341 0.9855434558131585 1.4468036922534182 1.1407114222591153 0.6519211632810474 0.605050101073 0.6772804322676189 1.1108723641264326 0.7987859215667523 0.7588090000840261 0.6116729815978206 0.7716587680875707 
0.7591909286605621 0.8412958635530391 1.0432835837867298 0.986055645562859 0.972758563548985 0.9526469115442623 1.054586706536123 0.693951562412615 1.021967354368621 0.8474744307135449 0.6629820613850824 0.914010759634986 0.9756236888442145 0.5228024367655205 0.665883483273742 
0.8243344265627848 0.9280408519536003 1.398872593236066 0.9785068554241296 0.5678818073339313 0.5989337203321906 0.6065383775553225 0.912327723803284 1.0791737863348396 1.112287404845632 1.049025797292597 1.3949150518968345 1.4649406127896465 1.080294166049521 1.123184696824294 
0.94860599755482 1.2976828824485023 1.0866892266273487 0.7616611243057411 0.5563300492066875 1.0305895415293547 0.8460552408934355 1.178026689285446 1.1131331758035916 0.965121764791252 1.3163537443669702 1.3253208913475865 1.3706890548597435 1.1681941183477882 1.1789927133313274 
0.8249422984107597 1.109094520870995 1.012538279933569 1.0084085188278211 0.9483215832094771 1.0320593022165867 1.0962410511268743 1.067179591032292 0.8238709651410973 0.5670705691102671 0.8483957634799467 0.7547746922490032 0.872726639534126 0.8133844302652952 0.9757885197426933 
0.6994670770583279 0.9069810801232195 0.8470105600699144 0.9799821153342193 0.8633976862231102 0.8651083790181631 1.165756739281544 1.3643837795482363 1.1053543196622155 0.7744183751807262 0.7061111843144298 0.8737703360906983 1.1085976752706133 1.0746156507883202 1.3177315712428994 
0.6188702341003115 0.5228545780738337 0.5513601207792052 1.066396120735009 1.1641446951411822 0.9443230174220686 0.8880824390319196 1.0671576145947852 1.0546615409336764 0.9971062209465305 0.9849498796886544 0.973835049010758 1.0553645050055793 1.1297922505333338 1.2719977551317805 
0.7517808833814242 0.5262560350877391 0.7425786694098645 0.9128944158938611 0.9266840855159849 0.695118496340155 0.3804329135156207 0.7379354986267508 1.0975281143070816 0.68406663481412 1.1099781951848726 1.1586834659249239 0.8565929937438378 0.9015412768347867 1.1144538625215574 
0.8613971244732063 0.5658127567163376 0.8736256369736727 0.9935616361596379 0.7058927444353035 0.7214328203608172 0.8392470471268374 0.895223127804984 1.0969593673052604 0.4765412748772724 0.8800016748486748 1.2832581942743655 1.032276166627389 0.8664760189714961 0.8683231821866632 
1.2657829137190415 1.0370267817475354 0.9010657001729897 0.8311943984728678 0.6094213249459633 0.5553111227772621 1.4092838393305747 1.5592556449663495 1.2667775206506517 0.933103333483231 0.605346474982357 0.8518681152805169 1.0869800087387858 1.1182091303583857 0.8275046103903527 
1.3716770151435678 1.1467433490913597 0.9174337133613466 0.9990735718247675 0.8957078784668937 1.0393988421366964 1.4922997089133911 1.5582027988545923 1.3990019438901058 1.30576492738548 1.1285472314633758 1.0466474034420323 1.200634560487058 1.1606518089923017 0.9967048247935889 
1.4492366388351288 1.119020765449653 0.7887529498975515 1.0247098592283064 1.16232072816898 0.9973835093630745 0.9568366440920935 1.0196805841387853 1.3928295185877162 1.3893723202392794 1.0520989021195848 0.7140799053381247 0.7143082844903647 0.671066976500531 0.7507207575845743 
1.3283583538920345 1.1131011535546498 1.2823040973633058 1.3811218452838347 1.3673459123761207 0.7427562707903693 0.7806223442968392 0.8386504553865409 0.9274679852106219 1.0518829933830098 0.6522712836998817 0.648084187110663 0.9831619221739422 0.837015126730183 0.9196054229395433 
1.192867872665912 0.9557392526909436 0.94943487784938 1.1438433266929429 1.3008951103659192 1.1212931512389392 1.3704917372855885 1.313299040976823 0.9827965935273871 1.0161665913798632 0.8212769070491741 0.7576024559568977 0.8564873934820192 0.9591363155343341 1.0079603757845295 

1.0685240803253335 1.2017308682800483 1.4231238174953953 0.9827531278416308 1.0725158234720158 0.8448982957390693 0.9164535903749166 1.156002329699826 1.3613946108072752 0.9851313320249986 0.8366477443755693 0.8429800977695839 0.9436170323878105 0.6104684889179165 0.8478856807105991 
1.1882241955361579 1.3154166211453169 1.4658982063123145 0.9495767942296743 0.74731536386356 0.697611065112236 0.40688799091014005 0.930673932590511 1.1246980509447315 0.8097210938721161 1.0118533666285234 1.258324623737316 1.0909364783639917 0.7680161165695459 0.8852283363128416 
1.128385579296006 1.1587071040567283 1.0592547500254446 0.8521047006294015 1.0294091641930312 0.9902549504143716 0.6032594056186695 0.6081251967424827 0.8721692937903901 0.857068999850656 1.2446198037797491 1.0196431406307735 0.7977030091500459 0.6508965154137617 0.9603073813309436 
1.2248711572463868 0.9241625912347416 0.9160080118982408 0.9666729020683539 1.3376313373474509 1.1698270213129929 0.8707223310804661 0.6075791720953507 0.7810059930717329 1.1360146749819138 1.1506908856705764 1.0184420044878184 0.978730982685582 1.0012648000965019 1.0704754160904195 
1.231471025281004 0.8266361515978328 0.8974784106925444 0.9488181471450248 1.1918650348484645 1.1546306862934101 0.6935250075546957 0.6269148976157558 0.6139852402110828 1.3115462963413247 1.3973602241798728 1.4546453503005772 1.2623727858905944 1.2164009340400694 1.1890442487475381 
0.8901040972185921 0.8326437618221024 1.2014315356835774 1.0331110360326905 1.0883046787188224 1.1372395577262244 1.052654933860221 0.954121795533935 0.45304875147708734 0.7701337777891755 1.0103935981553023 0.8293525522014777 0.7878125914964766 0.9960677168077159 1.2880894332876993 
0.80617336468795 0.8993958007370118 1.2668690251715007 1.0338323059239283 1.1664582166848865 1.3458430178001097 1.0341682674201045 0.8247790564047027 0.916765457472236 1.0729596619092634 1.0233210556071088 0.8076433733037799 0.9218625199420811 0.8592364325689363 0.9162503680722883 
0.9240353029362135 0.8321264178006407 1.1413178274147615 0.9318776525279951 1.1068145325440013 0.9324973759089122 0.9693429569593753 1.0274497503372806 1.3244996860670737 1.3997505524970242 0.6341490830283757 0.6951100086681262 0.7700476925408272 0.7107983321473025 1.0099795140388896 
1.2596138664936518 0.8164650186814993 0.9918315186427332 0.9371071346227028 1.267344871896499 0.9546314257771792 0.8137227925173239 0.7678973939170983 0.5707479259509374 1.079203741395081 0.9218527410775724 1.0809065246667382 1.1681642656584605 0.9155592055969901 1.397610625851053 
0.863472429173018 0.6090296480713999 0.7070092901599395 0.9988707513776957 1.093823466258928 1.148066555783354 0.6311715619093629 0.7599877317988867 0.898066988088795 1.0181623471387604 1.1368603491510312 0.9779294799820926 1.0687669403970506 1.132252507036041 1.3731179341255895 
0.4608982643468733 0.698455243392974 1.0830741803733042 1.1139907627239927 1.0533827888865772 1.0085797092924746 0.7240914002268241 0.7562615349260218 0.9771282800824628 0.9154594948207947 0.6123702117440823 0.9232467696904458 1.2437156948035795 1.2843315483923319 1.2135239893456777 
0.7135802992292409 0.8068340538559031 1.026941016865928 0.9959827404605878 0.946238267972659 0.8468237275086385 1.0096742741391558 1.1416266950064582 1.059424872114232 1.2793358493825582 0.7931642817509738 1.0313160635783922 1.4300755326429275 1.1901969376406432 1.1279716575527825 
0.6822159073127689 0.8008369335755411 0.6908813404781741 0.9141474029111882 0.9355353540108926 1.221817565438056 1.1950565707972354 1.3278282721862613 1.0892070371415752 0.8878924284074071 0.72658279490594 0.644529995364083 0.9703898754116905 1.1081697132149864 1.0393701396970552 
1.1115838759887104 1.316302543311905 1.111096739467178 0.8629392301595025 0.915901829778046 1.1951711960264584 1.0950230980997024 1.1582677435032736 1.051921972568795 0.7563679286601978 0.939223033370001 0.9694146508212135 1.0653737853148644 1.0248781355502494 0.8846225341458457 
1.097259022889585 1.1057638195393187 1.2225278321372577 1.2232845592408745 1.3166735926360862 1.3355356005860353 1.1593746087376147 0.8878921976397537 0.783597472998022 0.5207227516794996 0.4540936646970879 0.6839907429748958 0.964051982909362 0.8165642637804129 1.0613695393307694 
0.9840963782878794 1.0233551823873461 1.1837995445453107 1.2378333248492508 1.1150346101416257 0.8667079425255757 0.8956591900176543 0.920665811559481 0.6966126448147032 0.773101610501623 0.5245877205394116 0.741433076847371 1.1135409722106369 1.1328228198462855 1.2038480287327347 
1.217655443077477 0.9158325048844527 0.9700484419606271 0.8489822781742272 0.977959129918485 0.8295499089431876 0.7169698434397072 0.9319458259487365 0.8516400930095048 1.1115776768444001 1.0416670827934185 0.9662042093269344 1.136428509788768 1.0203062515435914 1.0036438238975252 
1.34426468135067 0.9777983315395229 0.9548855992219566 0.9375168553454738 1.1396073648646974 0.939238984900396 0.8946099783740731 0.8878571339311222 1.1649853913495116 0.9626159675871246 0.567325770222008 0.7524579589522584 0.8444970126090238 0.7383742940667598 0.7419861934999316 
1.121569109512301 0.8818544259239219 0.9941161544710511 1.0242214031639856 1.223900330953303 0.9057715893703101 1.1089459593118347 1.0420435833433395 1.0163126143176755 0.906187692515838 0.5351711484067702 1.17685596190721 1.225316505225655 0.8444078589585569 0.6042277063327773 
1.0143932299764256 0.9956813876519843 0.8188444310099686 0.865518554563755 1.2680119193398163 0.9070398144873327 1.1218028721426458 1.0739551933905243 0.966116731535317 0.6652672093861537 0.38999331359141753 0.91232578860336 1.2657072180706042 0.8485275590148967 0.7695474359651839 

1.0420418179980007 1.1041980746583957 1.1397949094046775 0.5849788588600329 0.6093231956260775 0.8688584504483587 1.197425373791666 1.2116557442862064 1.0119659825927927 0.8419411584053571 0.9310242787267371 1.1032886982266303 1.0950226287940121 1.0962865755662747 1.263343886741216 
1.0603974586940919 1.3155541101623376 1.3766294239995922 0.7800109435759702 0.735318650176961 0.8412690564849571 1.0027505968714892 0.9779670934511049 0.8609152606741006 0.6023431889974492 0.9136106219944121 1.1771219593651652 0.8716260941855164 0.7117305539878549 1.0233938815279313 
1.1125143909404116 1.4538515962998875 1.2692313717511627 1.1725192836683132 1.17313083786398 1.0173279605859926 0.6688012960148064 0.448153834076534 0.5244571896140992 0.46335702927368727 0.9802194811697627 0.9252173742887266 0.629477386289193 0.6719963105155893 0.771239781955655 
1.0058011273053182 1.1395581245844042 1.297571552237947 1.3712169398233853 1.4565277768566371 1.063169006465035 0.6845509522307763 0.6347945094141215 0.7022261346638815 0.7052068132771021 0.6799856055581825 0.6418466623448458 1.1040578166006978 1.2649829099769292 0.8446531330919899 
1.1904918275726821 0.8497683987083723 1.1918534110247325 1.4636621138816919 1.2966733934969055 0.956282112321515 0.6965663902135083 0.9216254072526621 0.6952062327312686 0.7549448308086115 0.7104108127720846 0.6732319149431129 0.9864335007282942 1.231462466944568 1.1076584500539934 
1.2653675682060421 0.8804289274720077 1.1674198731737766 1.2268711766519913 0.8182027838369974 1.1168836438443863 1.026646102225074 0.853113174702727 0.49483126720157133 0.5004858671408106 0.5818703109366745 0.8427606661553786 0.8580184912753692 1.1245540819983564 1.0675620178425476 
0.7889018035180184 0.534912590415556 1.0204265979682612 1.0698306646216698 1.2398859574082253 1.4339976746378937 0.9386033298868733 0.5688109402093005 0.5831948300114991 1.0081414536788256 0.9252332690771291 1.1570601325498333 1.0351966344426486 0.8399486653656568 0.8831678739666691 
1.1034138365953683 0.9178377996095514 1.2138209465133194 0.9968123997571745 1.0769823396266909 0.8915539994185747 0.9985155181824288 0.8985852751831076 1.0364335136807088 1.4912074090154488 1.0304573825799492 1.166277306807813 0.9508539480271873 0.8339893413142038 1.240573018328543 
1.374729723740205 0.9828226149700345 1.0858570114145434 1.072551478411523 1.1598905066482335 0.8111982495297552 1.1502281760516682 1.0490711168123807 0.8335662076640172 1.1373968486145851 0.8323844586736958 0.9772454709784105 1.1518613700641636 1.2601278621169087 1.2601648039492535 
0.8402770481191834 0.7908209162627923 1.2120492813475394 1.5151307023414273 1.454365724940128 1.167388887798701 0.6719589936906893 0.4988456901156224 0.8140411218708321 0.7824375977436729 0.7931693114066493 0.8121660431998932 0.9256058875883375 1.1486567787643769 1.096866541486357 
0.5507372075645365 0.7153944913737346 1.2270208156335274 1.5929715917157732 1.2556230422490704 1.0482009161482937 0.6940508113938434 0.35733016999496714 1.0722983949254596 1.0886370312642257 0.9708379459605058 1.3607450825380782 1.1922575009095762 1.1739506776409794 0.9706032287145849 
0.49843545673282386 0.8922843222505155 1.1913309921797146 1.353897671078688 1.1069498908640205 0.6901032819131219 0.7855662842094601 0.9001875846041754 1.184690402433319 1.3877330490614663 1.2608671730347258 1.2424013414822865 1.2746675030491832 1.176603297295963 0.797901805447255 
0.6738151879269462 1.1525152305265145 0.9576496954286041 0.8343556534136409 0.9547379358813657 1.0826618226651834 0.9143351700040161 1.0660243250114854 1.1136913169610003 1.0740848329917294 1.465383432182262 1.0082051833814234 1.2358948115246178 1.2216133891799372 0.9212708916143358 
1.0863609415989917 1.324518838889932 0.8936123319759174 0.9060895391796014 1.1255158162871024 1.3882383685573991 1.1778735331449917 1.0392480038732683 1.1907889176681632 1.161108106497375 1.5913676041507605 1.3760389635517734 1.1180322396878983 0.9636060910053538 0.6236576334682814 
1.1101293809757955 1.2723827182610825 0.993852898768298 1.0857466919636938 1.4056816299273747 1.4975485810546454 1.1345748840915322 0.899224284601442 1.2090330821181876 0.791153620149161 0.8008940262701525 1.149532494697378 1.4788150259830521 1.0975823891264591 0.9888958105738813 
1.026021034246647 1.3268397375763978 1.1359930104270637 1.172133022679232 1.234622697626509 1.0118343846327944 0.7743904358934138 0.7495570714713059 0.9840065360372354 0.6862114683776188 1.0000265787336087 1.1094360151809841 1.2639751654200788 0.9890713486170448 0.9434105365929301 
0.951536940024413 1.2381701478102087 1.3335521668458714 1.212243848496517 1.0435181455754747 0.8095518820533701 0.6015602090430942 0.7620933817104968 0.8194939029191846 0.9277342517026412 0.9802828259989149 0.6160227104485992 0.4783910119595747 0.8424456478582482 0.8877801216804131 
0.9031583616901204 1.091274291378467 1.2502711101481916 1.3273043293965552 1.0633109881539387 0.7834543718268215 0.8574258343108725 1.005485636484864 1.1789860710174915 1.1546797537242135 1.017222990875169 0.6900587270748443 0.6648291771664994 1.02818099955333 0.9942229555669256 
1.0805563761983552 1.0213132685700628 0.823595880977985 0.7771126414941222 0.9741875026813422 1.010746752934387 1.3243475418635597 1.3099977588047618 1.000792774020518 0.6024889811854691 0.7961619817727632 1.2012960893121738 1.0242163251196126 1.2301668579680287 0.93598952929047 
0.8002783045577475 0.9224815637010911 1.0085810882061828 0.9993244312433106 1.1486315353146774 1.048022484305022 1.2103765321190774 1.0590000415831533 0.8010928104937695 0.5187004786623727 0.4155407615439889 0.9686573861318032 1.0364984973362845 1.1555693940048535 0.8356622386206106 

1.0452747439907273 0.9466589373522649 0.7919035497340202 0.7749477952451521 0.7211892219482966 0.8395980701802398 0.9748581147815095 1.040220768820891 1.3632292553895153 0.8578261455913497 0.8201460485922379 1.2412811660378313 1.3290805428766 1.185713985874644 0.9377007565793285 
1.1128611834880031 1.2556796583223644 1.0650955900204715 1.0182775891174378 1.1309336996733155 1.0295976063613108 0.9595599828732213 0.813741113222954 1.070958958594558 0.8000978427668359 0.8117519858804443 1.1778266071763959 1.0143264934527112 0.7648250023143593 0.5735029584957988 
0.8049918410495639 0.9247515736226082 0.9248812278981505 1.1131740172339644 1.1446554002513136 1.0945439390873486 1.0574389657345185 0.9393483433376596 1.061834476534459 0.6374242843833279 0.9526284595261557 0.8271081507758656 0.7472146931755226 0.8232356616201583 0.6889548897099688 
0.43833941347626026 0.7724350063992382 1.0360616219556078 1.3269800469131403 1.480930029669107 1.306471014006756 1.2329511598805944 0.8447589689579998 0.8669364987212385 0.47250749440254225 0.7083033532195012 0.6371785506765258 1.0657996214426917 1.3495145811061544 0.7351796354515902 
1.0458686440602525 0.9133248034629429 0.8652810744596591 0.9961307522800192 1.1825510083469473 0.9840464866514119 1.042821585566787 0.8794516336071102 0.698931482236318 0.6333570054594956 0.8886686488228294 0.912771757716599 1.0443406151022971 1.0300778360359728 0.7843519033139831 
1.2747260659855817 1.1799163775924657 0.9290292431088071 1.182872398322651 1.2787167961788972 1.563776262154553 1.4696509160317244 0.9700762910043121 0.69322410971747 0.6708338258909142 0.9554349009759647 1.0795315916401331 0.7905445685123146 0.8125129209230294 1.0356115767108176 
1.0339333876284376 1.3424677467032184 1.0934105419451279 1.0012528173918493 1.2575866130365023 1.384320796403086 1.0999353433629477 0.7482455808479737 0.6600950236698028 0.8808735563825859 0.920291235988463 1.2032209246755734 1.0897398117883133 1.034742027115843 1.1964080613809576 
1.0817178174858801 0.982230591930048 0.906063349217988 0.3995391943416955 0.6219987932671757 0.8654285736535852 1.2315179889088306 1.1510052062110834 0.945853249779519 1.09730244014855 1.2048354081752057 1.2980169240398625 1.1698032258296776 1.0981350860334769 1.1714646415600733 
1.0326026736156209 0.7454536874213595 1.0051349071197762 0.8756547223422829 0.6822516176502796 0.5172509836755343 0.8729091360892932 1.2988571744657835 1.150016093783727 0.8935746929933931 0.7918023946680243 0.9767777607028275 1.0300906468376627 1.3201884279447111 1.0532167083484811 
1.0988269233551242 0.9012175450464913 1.1955313663020815 1.458278390858808 1.0784937735932818 0.7122514215235066 0.5433337035481476 1.0747598863299508 1.1667705680314766 0.9393854423789153 0.5763509021881301 0.927237822918972 1.1900628625702985 1.1256961172294413 0.8243010088218856 
1.0708449828020563 0.6556468839053343 0.9871855273920209 1.6400248588592063 1.3745644151900738 0.9301552394965981 0.953476355281278 1.0304972901000449 1.441136248809916 1.37017749225434 0.784127862921434 0.9708665973269917 0.9688738700102633 0.7206738833162953 0.6718601642180079 
0.8495010427869841 0.6999756826280598 0.9983532338609881 1.3479681510072936 1.3101698786440776 0.8220671547637013 0.8102674221128403 0.9826117755764986 1.2382327364628711 1.5525897251178757 1.0067214333621592 0.9938800220086708 0.9744694329452827 0.9171896424915118 0.44714635650215095 
0.8083338025992796 0.995958819005298 0.9603651041833728 0.9120505413499458 1.1649915214788793 1.0803009496128007 0.7686205317837677 1.1303677217590984 0.925881331359209 1.2055867656173853 1.2210173776604978 0.846444809745793 1.0235362849907768 1.2159133326707 1.0705592790469745 
0.9067062703438765 1.1692660332100573 1.071794241014048 0.9550143409459836 0.8350173068224086 0.9016985733548211 0.8533409570641906 0.679218241713812 0.852817511890929 1.0084889200311338 1.3133030267945465 1.1274075643128967 0.9010731771194583 0.9369295033029235 0.758885575963 
1.0492914806522031 1.016588657284069 0.6428284991852479 0.6909881719129044 0.7395106623306983 0.811467260000416 0.8086294654166603 0.7289617320299896 1.031054383370513 0.7334926044054688 0.8410225932641816 1.2698113172781476 1.221474033047183 0.8950208799229061 0.7285046160336307 
0.8248339561071686 0.8950270605672506 0.7752705474372429 1.059957322998578 1.0642330316309192 0.7693976903099067 0.5940973903160144 0.9372785988203907 1.2003264179929904 0.6646569012166049 0.8074306189915029 0.8863523350337633 0.8928790515686107 0.287755416957691 0.6500632073019582 
1.0273415066913842 1.0678660634876982 1.2445630902796387 1.190175806085247 0.8876221349209127 0.9623017624413998 0.8605852913934479 1.1406479966352774 1.2892673173164648 1.1151836966017097 0.942189741053746 0.5829110396800015 0.4457816653937997 0.26516098152096035 0.40847591343574685 
0.9759367556631091 0.8209664006204297 1.0301591462219486 1.2191526533929928 1.039815869868534 1.1863967889657454 0.8113725378691113 0.9441791068094821 1.0549232284716907 1.397997905559131 1.4070062469887867 0.9733476807844976 0.7580181147395869 0.8452339117945599 0.8869684305929425 
1.2691610971872849 1.1612471642844575 1.2084202598931308 1.2228968087655496 1.3125840095719283 1.306212601089526 1.1551283367306082 1.0734823360724355 0.969378840851283 0.9688818472671751 0.9486832880349176 0.8748624334250782 0.8732308062253362 1.3169622739705242 1.3740112961174873 
1.1404633756609486 1.0339589288522129 1.0420491026731753 1.0080112527442653 1.0475778568275593 1.3226324631766255 1.3041308373224174 0.9311024337484307 0.9334378903719903 1.3912657916991322 1.0931472358031473 1.234966077735859 0.9819597562422179 1.4541700813420424 1.2029716724097872 

1.1868276521806593 1.390837865360373 1.134596215632325 1.130119684314745 1.2354525469411102 1.1284979952006795 0.796443323773449 0.9655236809995821 1.0915202138634559 0.8797197594402147 0.9016151351558813 1.0334382788398755 0.8742574113512865 0.9192592685545884 1.087132089007758 
1.27313609203894 1.4864690343507605 1.1590402273661766 1.0793308035595404 1.2361832741998566 1.1267481183659678 0.8702266591554095 1.1589749193771905 1.2709935556485603 1.0896967523523977 0.6722449001024793 0.8733967333235089 0.7923812719544998 0.9083007923748372 0.9112205493037614 
0.8116570016594172 0.9245052045877874 1.0877046638747645 1.0426008236990882 1.0789665813564069 0.8063708258613937 0.9207300428813565 1.4222955157795707 1.4150976168755567 1.1768556409309814 1.0412734062041862 0.8668110464852331 0.9579496900826384 1.153005356599064 1.2757597866959056 
0.47492156806384656 0.6467460570533811 0.7625265392075228 0.8904469991894134 1.324706579696581 1.3774658719646542 1.3520780276549553 0.8626114202620402 1.0607147284296168 0.7894332120352863 0.940862625596165 0.9313930252157984 0.955802577732566 1.1842179462082347 1.0951245580511553 
0.9554719990769687 0.9353796731571234 0.7125673100741986 0.6951081695665297 1.119939592271988 1.2186960272106346 0.9539111912136633 0.6510112626041551 0.6644861987660594 0.6161226458359654 0.5646499468087596 0.9714485780630556 1.225735901901182 1.1759015576296283 0.7504210836692483 
1.1411451872797884 1.1905670637947234 0.9090697336879889 0.9066924276938124 1.3505958652709795 1.4294007310526697 1.0098884108758122 0.8976860122699556 0.5958391728062887 0.6020529513905869 0.8892945184487216 1.0554472977628553 1.214950893983414 0.892047148193517 1.0151865737733279 
1.11548327580757 1.2293032932680297 1.241391308591933 1.1965294305199863 1.2919240925188569 1.2522632416580821 1.1871419306910855 0.9658137257441561 0.8114243947656111 0.8269350517063445 0.7554395503442609 0.8481876219152175 1.0898008031883375 1.1918953461303428 1.2943768577801023 
1.2271380802712049 0.8185162176803356 0.9733063421991501 0.8078701200626653 0.767258398167681 0.8358798449434853 0.9462733688538594 1.3331277051430739 0.9938474926888446 0.8142040268538306 1.0037220273777774 1.3367605657092732 1.2221734742133203 1.278590483605904 1.0548014067992937 
1.2144143645620682 0.8197500752666788 1.1622673443292397 1.0374253099139978 0.9468633893134878 0.9004042655507053 0.9132065265207286 1.3651999926461746 1.0046167141728513 0.680044603321564 0.9875503393175502 1.1004780618050267 0.9338144254574812 0.9301417620024334 0.9025899926985964 
1.1278579922485354 1.0522519921845408 1.362999934604535 1.4249976484586222 1.2489646449300738 1.1372150654387663 1.0074131084315145 1.054974897763553 0.7991872234731868 0.857161642114174 0.7714601160502916 0.908048710192607 0.9560627330374772 0.6776562099524691 0.6474174676711747 
0.6973917660136396 0.6290037355094937 1.2712979376634812 1.537566187697581 0.975906528215543 0.7208362220069463 0.7715814705117529 1.1014712607068433 1.3028026219564812 1.3940072578590614 0.6094478125525772 0.438370916994264 0.5157884316338259 0.2574207717280199 0.5947671529178729 
0.7618133987761133 0.7020236377713495 0.9301154839052806 1.173247700059703 0.9826555361498212 0.9883834989476472 0.9803546030913622 0.9702678885450926 0.9633267966084357 1.0836899710457146 0.46820884022474496 0.6463769087832728 0.8157589839198323 0.5471556350117525 0.487676879196579 
0.8533141775645707 0.9418845630258984 0.8956305543707775 1.1267303835710654 0.8432229445978681 0.9924892303131809 0.8152891123078627 1.1694525214092653 0.8492316373424105 0.8829330989097067 0.5887767720386906 0.9238820411099048 0.7993232253241468 0.5977351471650628 0.8496184025253867 
0.5891711355014749 0.967367093142797 1.3497057041583482 1.4280596187266763 0.6116385820265602 0.471425755769901 0.5790235902668976 0.8319599555914122 0.7640628940902956 0.8691289600528008 0.8289382605503317 1.0186998746006823 0.9570893548215602 0.7516512888421827 0.7499130067259058 
0.9066781153103999 1.28822692911675 0.9393255588246323 0.8051509373711109 0.7170621009287053 0.4219123261554659 0.5620296575877989 0.837431121465192 0.9753854773769349 0.840406388477326 0.6045512573922929 1.0309670627529008 1.0192809048508726 0.7255587639726947 0.5083467855279424 
1.0437303627591208 1.1689731640791128 0.7599722009310533 0.8778308572033773 0.8027888474718108 0.5825887231805398 0.4403616498349059 0.9812872657463242 1.370176041546317 1.018276929360617 0.6822571777205443 0.8548637805688348 0.9335697393581094 0.5106351591296371 0.759071345588819 
1.2906482827560026 1.3224849058665868 1.2774724343179793 1.0703125737615362 1.0294931666090172 1.1066303595439613 1.0209627400965418 1.2637829827640066 1.7809204755036276 1.439013900652657 1.2530156568921305 0.8036423657079361 0.7753339095819108 0.8726811571811018 1.0408548795802042 
0.9703683534994297 1.0258763842173675 1.0823920569305892 1.097438360984302 1.2980741265638018 1.4200962523500187 1.0442742101462774 0.8735172848486682 1.4123984948798456 1.4397668566403263 1.4603118449657062 1.1224436384638627 0.8459422133317646 1.2693735890730138 1.420980884574015 
0.6041350965766177 0.8792071081497579 0.7429724039956144 1.129140005211187 1.24103455296701 1.2711201054958585 1.2167394697413614 1.0827737398573094 1.323049363590235 1.181587675845527 1.335964206606584 1.1856798715573804 0.8937631160711819 1.059500275976542 1.4084331077939938 
0.813122980696408 0.8431245429879465 0.5926278278381217 0.7268756380017085 0.739033883265546 0.9206623436337279 1.0753706586549607 0.7648596086434419 1.1134184101374043 1.2204506303346996 1.2495969752181977 1.1401398618281173 0.9287550594453111 1.071434396239931 1.2217574452450846 

0.86514825024869 1.340941136900939 1.1249409922214317 1.302249010792254 1.1112325345794978 1.1728808154283183 0.8788774110718317 0.9224430572652892 1.0556261654721326 0.8204277050097301 0.6365287991343863 0.3501652545538795 0.5355620315952033 1.0131880075145536 1.071466216816321 
1.0009719479998593 1.1991871607665194 1.008909762281697 1.2515347367198615 1.168079684178883 1.040836450006639 0.9251296050167663 0.966103719851512 1.1209307693348078 1.1903615805898164 0.9462615415095156 0.7573951601061675 1.217787921360011 1.045443844634788 0.7453348849316715 
0.8156504978910438 0.9685975016491832 1.1312058145513153 1.502829383728546 1.2040744140478385 0.6890794155101766 0.7245531128107389 1.186457112424868 0.9795079841307881 0.9555605212807946 0.9705745444116293 0.9861282020944357 1.2611049962281196 1.0058026843411616 0.9724727259524589 
1.1263273348414997 1.2751798561027439 1.072654026706352 1.0672410542971655 0.8167800129614559 1.0998926890658347 1.0362067366982288 0.8216072398066177 0.939177060538557 0.7418008202657951 1.2017228624962408 1.1306626600595475 0.9546913405449092 0.8900657439355929 0.8951107635891583 
1.2489599764277548 1.4780932339532336 1.3252348957472933 0.9356951720976495 0.9664572265697278 1.2707687159894103 1.050573902539501 0.7975651574273039 1.1548013658419323 1.1450378989420016 1.2125942560103047 1.170846111211688 0.8162968332928241 0.5604510526944182 0.4844100468808842 