# vtk DataFile Version 3.0
vtk output
ASCII
DATASET STRUCTURED_POINTS
DIMENSIONS 15 20 65
SPACING 1 1 1
ORIGIN 0 0 0
POINT_DATA 19500
SCALARS Image float 1
LOOKUP_TABLE default
0.736803375787466 0.7880556329574075 0.8131183838364359 0.8578869883668008 0.9554525430034949 1.0929010888250799 1.2273101042286616 1.317683981693397 1.3406949390654987 1.2928229547078638 1.1914856821296953 1.0715013571983945 0.9705229464534582 0.9132662748495073 0.9065566139298045 
0.6555378430104764 0.6821640360840817 0.7128625295657673 0.7911675612000411 0.942221647571477 1.1349627648505838 1.2985269334508245 1.368879906489416 1.3274150912282872 1.2116264172742348 1.0934750333826049 1.0337239319208442 1.0420095136434786 1.0786778984129453 1.0976569618519563 
0.6144695022612221 0.6066559688254634 0.6337351860945215 0.7390913391130188 0.9314966060289164 1.1603258491603534 1.3422273308213104 1.4067595407560312 1.333761294055786 1.1728436752224876 1.0282353947071023 0.9959400870130966 1.0883998244793167 1.2202144454206731 1.2815348437642207 
0.6558555295405433 0.6134850140226148 0.6136509868136661 0.7127567967747432 0.9162291978755144 1.1610799531302725 1.3574662034686122 1.4347288208681384 1.3664835765282661 1.1895424917997046 1.0084788452342988 0.9463316780366867 1.0490396496894805 1.2324169620206713 1.3455278645977127 
0.7678213951667896 0.7015589177877435 0.6664859304495934 0.7338981914777114 0.9201517276568814 1.163882941945934 1.3722270589552352 1.4701649184159826 1.4196501188355803 1.2355807385688913 1.0060644711748181 0.8671914513854573 0.9084824160555031 1.08599954034643 1.2481378100478686 
0.8858266245626067 0.812049979784877 0.7635063642792794 0.8111166476609033 0.9749478995999268 1.2019574398473107 1.4062962366355443 1.5122218899989905 1.4697627576073105 1.2729795591292317 0.9919571568331915 0.7657940695482403 0.7174000268944845 0.8512233111520845 1.0442584840339388 
0.9376582251977248 0.871643286051746 0.8436317730982397 0.9093094725016461 1.068671280439187 1.2668861823082251 1.4368739894081206 1.5233238606127362 1.4790112294590878 1.2807850651426962 0.9758941635294395 0.6936160977474213 0.571236677783723 0.648517419888883 0.8392980154330391 
0.9037041406235583 0.8546748820574527 0.8598324310483105 0.9626730311742073 1.1320237775555915 1.296176314508158 1.4083611876764972 1.4562210393651966 1.4201927726859847 1.2660633633297376 1.002410422739728 0.7235571420775369 0.5596489287165283 0.574016951313397 0.7195208789321146 
0.8387794532908318 0.8048885886151746 0.8179489543248757 0.9266853103966384 1.0889750702050514 1.2187328140521019 1.2799392441687567 1.3018298804855637 1.3047242722695744 1.2519705772148013 1.1016067338263469 0.8859615086028417 0.7066406606113114 0.6472266331977343 0.7090433877347413 
0.8294153068046983 0.7932549597756333 0.7653215397023841 0.814902106069585 0.925543874530009 1.021233209810437 1.0674545021736408 1.106047869073212 1.1791359316903398 1.2517383544990373 1.2412073340856074 1.1153147199097402 0.9354856245908826 0.8009562111354087 0.7684456849749892 
0.921331025346043 0.8552884817332402 0.7449532099934937 0.6861107723127178 0.7102452409796829 0.7748986680928349 0.8445810910206424 0.9398797968665499 1.0881377554978553 1.2508660378342695 1.3336896689512066 1.2732797709907342 1.1011185334967135 0.9199020399551185 0.826282551915442 
1.0821552738627023 0.9697444965805007 0.7685255322260904 0.6029295583675054 0.548359117417223 0.5947104606937945 0.7026219256104432 0.8558794192883104 1.0439777079582253 1.219128802316623 1.3041195957717484 1.2521723230397563 1.0929631394370432 0.919453784255526 0.8298970665252985 
1.2306266439162679 1.0897075605471338 0.8287581750547999 0.6010927029392794 0.5107699790535756 0.5595370302373807 0.694400647045148 0.8660509810134891 1.0335939500833757 1.1470920748263909 1.1616376682074285 1.0739438309111167 0.9340206057995137 0.8183430448525304 0.7900453797702653 
1.3013837562845967 1.182036689758336 0.9178734066277512 0.679711691383718 0.5912708448771848 0.6546126225289727 0.7964479492191112 0.9435126252055959 1.0462125680861574 1.0699151658577901 1.004528541285337 0.8842553709897943 0.7757040082505711 0.7356328527062619 0.7802718299171721 
1.286969258567574 1.235743579805033 1.0203463409152715 0.8008561148815471 0.7166342033110292 0.7828284103197438 0.9186663891079372 1.03497365397196 1.0815919578180087 1.045662130224192 0.9462913334747906 0.8346946192276362 0.772864145109283 0.7928455918609912 0.8755908762857265 
1.2269778231131065 1.2467907755481134 1.0978589326338413 0.8999233584435533 0.7975266699856829 0.838862906668341 0.9652162110489079 1.0835153166620048 1.1323278846603682 1.1017894543541353 1.0251944398029074 0.9585576201054754 0.9482648830137501 1.0001800794478588 1.0760860753877637 
1.1635538729142099 1.2106101285460358 1.105172609471576 0.9198944876493343 0.7874889337364545 0.788666532448062 0.906929642633525 1.0621122074715048 1.1724888207829032 1.2023653720337029 1.176344937742988 1.1537210609516984 1.1776406890710642 1.2399113822054517 1.2920820609336097 
1.106685465593675 1.13173333633362 1.0337589524320483 0.8577665094699687 0.7135951273308505 0.6898550167017883 0.8023662566768562 0.9943442201457092 1.173864069788431 1.2715545232483079 1.2865652675200947 1.2788440844669777 1.3066383872759204 1.3694859384539306 1.4143597834388206 
1.0374728347043394 1.0326675200094488 0.9342171300875455 0.7799950738755018 0.6575256991568026 0.6383374725967446 0.74256681660161 0.9330467101985869 1.129587743241816 1.2523848085235998 1.2796500363062906 1.2640615790068628 1.2783337170259421 1.341171686617709 1.4024812560876423 
0.9414118135101852 0.9479014531587133 0.8850049866335026 0.7797297578867372 0.6986047397493851 0.6916738712139574 0.7703281902782859 0.9097179141189025 1.055547398824231 1.1473739248935826 1.1629390146147631 1.142411909402464 1.152839645818538 1.2205717605293072 1.3031450122114168 

0.8669796986923655 0.846165654580729 0.808273455723893 0.7993104939174889 0.8541035533235373 0.9672107827821438 1.1043614477094974 1.2258905969355074 1.2981437266652565 1.3000241050638 1.2331679324225489 1.1237932702898765 1.0077656219392197 0.9143806423482624 0.8636772555995743 
0.7350893610586802 0.6976438608646931 0.6840913306505348 0.7300749059522202 0.8528572618807793 1.0268232177347736 1.1963122806729842 1.3053305260512331 1.323850832611534 1.264671013780466 1.1800386882538616 1.1270050725542997 1.1224134167470563 1.134302144156238 1.1227185671651387 
0.651440466023229 0.6013119078392553 0.6092323861738639 0.7041005550979162 0.8791585638162109 1.08647332433907 1.2633444169326966 1.3570214393336069 1.3417584228454882 1.2406694509687364 1.1330965579589423 1.1100800940970479 1.1957652358438626 1.3166342723301843 1.3655591369705598 
0.6531416477076828 0.5975534379832144 0.6064865424604566 0.7178412133860451 0.9164863375964075 1.1377586300359546 1.3130092357257517 1.3966529506118213 1.3671495310902493 1.2413508069558445 1.098028924657526 1.0502291935860428 1.152836365140156 1.3350988304613796 1.4499212732553208 
0.7165528684771614 0.6611520997651685 0.656860572547598 0.7571686995013949 0.9561398226664706 1.1846956466213188 1.3650014333679987 1.4476610908358982 1.4091132777100954 1.2571708230164518 1.0606414508132282 0.9416339779009719 0.9897430569227239 1.16989944664625 1.3367984412400593 
0.7834435357249102 0.7279296932701089 0.714899645734274 0.8051621442253368 0.9997758904550673 1.2319656599863131 1.419143983014579 1.5034128608038038 1.4532243507899973 1.2692003576919881 1.0143139724063885 0.8140752555921849 0.7808092655216913 0.9173490979008507 1.106764494744209 
0.8106791314701343 0.7518641213729204 0.7423225536941729 0.841623761128836 1.0404595276503479 1.2675369857858036 1.4454206440947812 1.5224723144064438 1.4662637407632202 1.2695534622543752 0.985870623069892 0.7357350996341231 0.6377660288859306 0.7175010454918619 0.8906502408999964 
0.8030419056987297 0.7419209753545206 0.7359274597072644 0.8474569658749236 1.0502000403297953 1.2590509068038291 1.4064165386356877 1.4674083636276165 1.427458976100026 1.2713308926828994 1.0250347812945546 0.7817995572398955 0.6498033841758768 0.667619808032518 0.7834047119542382 
0.8036672374071723 0.7440607305610711 0.7214994773205519 0.8128170740215087 0.9933785492145869 1.1713947597551548 1.2863320927799875 1.3418507588414268 1.350867967434814 1.2933752633530844 1.152798260760297 0.9697681178696886 0.825700623288848 0.7728922696242017 0.8007856737982822 
0.8548602711341652 0.7916708436453543 0.7213606070698702 0.7417664866117957 0.8588477114589275 0.998311062236815 1.1040208960413747 1.18620714012002 1.2690792253701058 1.3290813508039736 1.314091519956535 1.2107462092953936 1.066548912841176 0.9466493943301914 0.8881172698945926 
0.9653645619100898 0.8799811360721482 0.736995562460609 0.6553520081781552 0.6850090613596242 0.7875907356338441 0.9115404360509618 1.0471986621493665 1.199044195158487 1.335166567535842 1.3946633343154666 1.343540539523454 1.2087225696857744 1.0588411961504312 0.9618590843761256 
1.1072741946678306 0.9856680434515627 0.7675858197284754 0.594659886160521 0.5526039448939681 0.6322077174357553 0.7818102563302491 0.960408892538083 1.1360675831727385 1.2659828918293967 1.3081698860252926 1.253650655291929 1.1375673713983256 1.021004034797821 0.9640326052833067 
1.2365936773802428 1.0963212037051493 0.8320051513397109 0.610275586275767 0.5389301982487062 0.6156683137570715 0.7757244910606216 0.9501325452432277 1.0817645839550796 1.1280786613729734 1.081225800044368 0.9810189051157846 0.8910163830690063 0.8595751078691813 0.9043826910446431 
1.3179649826198683 1.2093761882690468 0.951811711664292 0.7267336604665143 0.6586726994913272 0.7427789586207831 0.893073179080177 1.0192715878323027 1.060626972846552 0.9942385269029539 0.8492179745546888 0.7051220704146894 0.6469183190392443 0.7079052929856435 0.8565047452755092 
1.3405523974481468 1.3091345809799195 1.1078756300095836 0.9049432513780556 0.8394521470835623 0.9191488438521902 1.0502803992141125 1.127734127919303 1.093293095800832 0.9490566057752048 0.7542305149797011 0.6047639641526197 0.5826427606041117 0.7014704176800595 0.8977231665322817 
1.3197528776740852 1.362590748031772 1.2305365587460089 1.0500425695075548 0.9645252530789798 1.0145087873358547 1.1285805027437121 1.1990023249368154 1.1583833441762954 1.012802451089815 0.8334489098748278 0.7169408662548646 0.7284203050239441 0.8602194502278447 1.037335276898581 
1.2819493810227864 1.346067023249954 1.2513494809661125 1.07849800478047 0.959224758325067 0.965796365051283 1.0687651689205986 1.1748751278617389 1.1988706877035578 1.120871574336453 0.9982580406770217 0.9231855559393846 0.9535469606613687 1.0717667079594158 1.202239068274357 
1.239267610490954 1.269155315187247 1.1677338907996182 0.9909885768853054 0.8503162451374676 0.8267726993582063 0.9230807764539157 1.0701653353996043 1.1742962887050379 1.1812330612874329 1.1168839402101653 1.0649561955698064 1.0930346057755285 1.1944188039627053 1.298252238823209 
1.1771571512033299 1.1660415884301503 1.049830073265696 0.878196419360961 0.744108521733613 0.716343702422454 0.8047256433443666 0.9599535182992968 1.0984250890925635 1.1519360260422895 1.1193561822654026 1.0702740662302679 1.0836810336288574 1.1757620523125039 1.2866153345862426 
1.0737646436818957 1.0688805788952596 0.9823126395817342 0.848893799794827 0.7424032641897751 0.7177977606305461 0.7838543994596912 0.9052698012887577 1.018646651799565 1.0655211799834021 1.0358841869051714 0.9836177935308708 0.985335118853652 1.072593913081294 1.2007721966426441 

1.0048206849629067 0.9337973568408248 0.841996575286991 0.7784156351405751 0.7750414297317029 0.8331396835794993 0.938483856548417 1.0702561249868676 1.1943018543425776 1.2671280953552917 1.2607300758856113 1.1810288490599925 1.0593868586096364 0.9346254348237321 0.8464886201644192 
0.8414275566625993 0.7671567332936862 0.717391988606564 0.7278174588021148 0.8074044223389971 0.9336343664482532 1.07220480055899 1.1903426255552105 1.2601971405872983 1.2707695092710654 1.2416682552590501 1.209559424838612 1.1911652669415582 1.1695296346244493 1.1258021775972813 
0.7250044751153923 0.6634069509448609 0.6578515468587629 0.7343288402890147 0.8760396098123847 1.0366365678489151 1.1752509451927817 1.2664730697582727 1.292704861572359 1.2566443138710894 1.203382365815699 1.199738676747152 1.2688630816976567 1.355798856864052 1.378011593069929 
0.6826170406323542 0.6474738406548375 0.6684901212062289 0.7777267268897933 0.9512941456757119 1.1262560723603654 1.2539399649134997 1.3169375498901341 1.3089585603278548 1.2362063825433944 1.1475959836594718 1.1274850683555395 1.221796632148796 1.3749167367322743 1.4668406478621576 
0.6842079347508937 0.6767884880518084 0.706188747989097 0.8187260350291713 1.003110351128995 1.1929716519116085 1.3257641105713043 1.375545491001502 1.3378490593955283 1.22282243185169 1.0812847831628998 1.0064210646823368 1.0667784223003387 1.229774159563788 1.3740149794164649 
0.6879437037204958 0.6918694960604079 0.7199871980470092 0.828602741393795 1.0191316376247839 1.229108250850642 1.384478058154762 1.440565739887416 1.3821769927994962 1.2226014405674817 1.0226042664245494 0.8851736533547309 0.8914686453190928 1.0284720447421152 1.192177862412752 
0.6863132327009475 0.6787109541956733 0.6984838059513336 0.8076519740741108 1.0057153104321879 1.2287737224437971 1.401120662841764 1.4709966497702207 1.4130025022657873 1.2361360995098543 1.005793576263093 0.8313504947736007 0.7969033103669885 0.8953655514216283 1.0394523900964847 
0.7067518735952303 0.677331866501236 0.6767753762526489 0.7776586742904296 0.9718987989058242 1.186983052666331 1.3529168759234302 1.4321075872122602 1.4042091626815112 1.2670204005011692 1.0673368958362972 0.9000221905662167 0.8429455567325832 0.8926757932366132 0.9793348669875858 
0.77381285950143 0.7290319216507978 0.691886154527898 0.7530721558206157 0.9120768974568534 1.0953947069274659 1.240393203595961 1.3302412197018987 1.3603178809638592 1.316681658474878 1.207220456958092 1.0856337620079206 1.0124203274925077 0.9970328903952498 1.0009757850392185 
0.8817282900463159 0.8273961534078317 0.7380507502278781 0.7233114929865262 0.811750544095083 0.9498264159704278 1.0830456589764728 1.2004644943057379 1.3021924504480844 1.3637694282002346 1.3574918082159158 1.2916749973569928 1.2040498370057606 1.1219312427327697 1.0500138697792913 
1.0060342537045543 0.9322542540442192 0.7799255722981013 0.6746282734983676 0.6807347632488064 0.7772885503736395 0.9180909584543298 1.0776498208342955 1.237025457791582 1.3595293112707276 1.4064674153277101 1.3701861534395168 1.2775102329925732 1.166435642378621 1.0715075554357674 
1.1298122588075075 1.0240032408383488 0.8099488888194625 0.6314155155480483 0.5787102061693168 0.6524270746841162 0.8068736403895572 0.9924791185589834 1.1605277805930891 1.264312292448974 1.2813710896414086 1.2292239752679097 1.1486301877078362 1.0767470660189975 1.0409600576364135 
1.2459884210511198 1.1231677962418938 0.8721348614629464 0.6585854839168083 0.588137341346234 0.6608884429241761 0.8155373696686821 0.9795365930538513 1.0875371567571162 1.0981607040862615 1.021876005152647 0.9219053608500385 0.8684117441729812 0.89073339073581 0.9762124873551743 
1.3387873130329981 1.2482143475749468 1.0098809374014501 0.8007957038648912 0.7398313911290848 0.8203911822135169 0.956859213998898 1.0568442886655673 1.05787791779369 0.9448362457494424 0.7664100800584278 0.6220761460073339 0.601315574780942 0.7214799665117212 0.9248093525968509 
1.3821254727339363 1.3703827040455132 1.1951958702458527 1.0154543710401518 0.961489275389715 1.0373552175303473 1.1478772941792248 1.1856758301329782 1.0941957571779461 0.8885603360930726 0.6501130758157436 0.4928457594890624 0.5009621678514616 0.6743599943134844 0.928833392315556 
1.3671185282138598 1.4309228891029493 1.3319835586928683 1.1835860625591046 1.1160663649858362 1.1635975905937694 1.2523452662443955 1.2727647162386044 1.161207986223834 0.9395998783309762 0.7026583744050263 0.5640632581870664 0.5902163452679223 0.7623402928074573 0.9905994122215649 
1.3206113731077114 1.4027566158053824 1.3420962001849832 1.2062168471397816 1.1103064563475802 1.116434199862684 1.1912528397359232 1.2411239999265082 1.1870543288866504 1.026086527234415 0.8377189682829344 0.7287945303499833 0.7580697367778104 0.9001655869744218 1.0701491087706143 
1.2790502549752893 1.3180184639970822 1.2407953567680383 1.0943304859724734 0.9736724578755682 0.9474850605367177 1.0133987356955172 1.1034820088560977 1.1325484030945905 1.0627038513370826 0.9375926892762366 0.8507647001667676 0.8697233338353306 0.9837769311120912 1.117935297092822 
1.2425886924697118 1.227812791115548 1.118023433201793 0.9588108747302664 0.8302390913047859 0.7906233362322943 0.8463265599078286 0.9509395406737318 1.0294732284617822 1.0260583272997228 0.9497954895761584 0.8737205346292017 0.876157610185285 0.9743825470438058 1.1101165372511965 
1.1702069079306103 1.1490382676216588 1.0516144846026978 0.911445917178116 0.792742667044114 0.7446207290902314 0.7777670844312314 0.8630819325273239 0.9434370637604914 0.9637506406317394 0.9127324592919591 0.8407178162306261 0.8255884471756928 0.9084764803613182 1.0543210112944712 

1.107869913055858 0.9975553599684327 0.8596839849198841 0.7568939400404313 0.7160034000438493 0.7314232924011482 0.7963309446148673 0.9078148988762945 1.0432403866250153 1.1539226367437287 1.1947747643855335 1.1547902639360772 1.057148838153412 0.9430853495390983 0.8618855124227269 
0.9402676719346251 0.843515509240071 0.757953022109282 0.7336848705743538 0.7775354257589583 0.8617952141698154 0.9587311182947323 1.0519655154446261 1.1250399318134516 1.1627654978343323 1.1680620752435904 1.1603593343585574 1.1496880895156623 1.1266423983301892 1.0883040641905173 
0.8094431240786363 0.7482312774272267 0.720062929719405 0.7643558266998621 0.8682474525291718 0.9857656187558009 1.0827848988171156 1.1471773737796973 1.1712055858634058 1.1545418927930655 1.126335281002375 1.1347041041510524 1.195457039200999 1.265434162097495 1.286033334668721 
0.7386677257259573 0.7291357018285431 0.7430078031179761 0.8224836998283751 0.9545425001093203 1.084794078237369 1.1724247649818993 1.2086876183713118 1.1945670547735834 1.1364062047578714 1.0714318355891082 1.064460895920288 1.1489988359235326 1.278828366554331 1.3621055913873272 
0.6979630960561529 0.7372274267403031 0.7739719099546761 0.8603955822032208 1.001727491173033 1.1486484378971376 1.2482073778461777 1.2772659494545293 1.2339190959572353 1.1321455923216788 1.0196764243660819 0.9733553125367509 1.0422353311568298 1.1920326699893322 1.3245509882528896 
0.6582799533492514 0.7182716911232472 0.7609031949092371 0.8457218677416666 0.9945134500064509 1.1685283861436844 1.3048383996428756 1.3552052772243384 1.2996424513945746 1.1563166543166588 0.9928514218261221 0.9043534755085016 0.948732672506519 1.095968942366376 1.250478159530397 
0.6347783710835995 0.6780851321750982 0.7082345820965229 0.7907319694922801 0.9482053651849409 1.1444781854400872 1.3155361731520838 1.4000817122347828 1.3591487648401661 1.2036206164199759 1.0130186276764894 0.900217534673171 0.9291120920344438 1.06389854926223 1.20675196180683 
0.6677772598535021 0.674928952631759 0.6732866463652842 0.7403933508762552 0.8927975611520103 1.087320274904017 1.265423425040372 1.3754776365628685 1.3757853208757278 1.2606602609846838 1.09404030019425 0.984908373734657 0.9998340640181458 1.1036163131964472 1.2007080742034966 
0.7691155921497883 0.7471858485090765 0.7000759397070502 0.7233570112835077 0.8395770741257397 1.003627608451484 1.1640669867085263 1.288359520782116 1.3461624573096955 1.3152883974246825 1.2206929575203787 1.1376114879315369 1.1260269612049263 1.1685869747756414 1.1946976278862793 
0.9051882740907083 0.8667457034183847 0.7679492777628721 0.7208538054155732 0.7711609064009611 0.8893809487048876 1.0319735663581138 1.174283729760758 1.2912574381732598 1.34813837692824 1.3326828729537987 1.2779458800833372 1.2296669040990076 1.196892718487838 1.1540360555768359 
1.0368325908845686 0.9769935727457135 0.8224868424948157 0.698406588184029 0.6777830090905782 0.7562100142517466 0.8972491534353605 1.066384094856623 1.2248116056509197 1.3267113510895379 1.346220633980065 1.2988092363755346 1.2228244839570004 1.145655659449166 1.0781434716558995 
1.1584391704936061 1.063665144416366 0.8530961226902624 0.6682817088339195 0.6012088462774579 0.6611716448578713 0.809591977506896 0.9925974949801744 1.1493370854651546 1.2276232796663504 1.2144615969378245 1.1441596148236233 1.0665554859459567 1.0126694973147274 0.9943817017285911 
1.28148245888102 1.1626629588053965 0.9146424244021427 0.6993777600899371 0.6208699225462513 0.6832870882185608 0.8296759844057428 0.985745273039976 1.0807240673837628 1.0723161772528655 0.9774531538119209 0.8672652204844765 0.8139862726744419 0.8419522280086393 0.9312007667276342 
1.3891947648291862 1.2939374269659831 1.05581729612685 0.8445602742221865 0.7757263398791318 0.8459567586031667 0.9730832499942469 1.0636572245322067 1.0533771039311355 0.9298420621236155 0.7467847726559931 0.6041018574391137 0.5855889949594675 0.7028672760345076 0.898169751548171 
1.4352087674095957 1.4130575076319065 1.2396502503706173 1.0612238691866984 1.0009230019147761 1.065479668771898 1.1640897104486396 1.1892653694718942 1.0840474275985104 0.8681271164697215 0.6279992682991478 0.4748434922342126 0.4829759718001816 0.6463894984775889 0.8865137787234931 
1.3996929713007011 1.4518618623995616 1.3614545002581215 1.2256430433396124 1.1608867904725237 1.1997540455405005 1.2728843651442812 1.2730656612325606 1.138333356354293 0.8960725556047374 0.646443409849046 0.5006541477882853 0.516166252184114 0.6706894019974603 0.8838912010592115 
1.329097889974194 1.3999170302995867 1.352640978619177 1.241214579267882 1.1612690422794918 1.1654388912975735 1.2217915581316687 1.241833839767328 1.152436407073981 0.9574629989812843 0.7409662666960004 0.607835991374553 0.6116687125433019 0.7286536097862137 0.8863222685682635 
1.2946352123450686 1.3197454003119564 1.2505730966140693 1.129143289392113 1.0307051635384274 1.0076046381275705 1.0537126323603359 1.1076526492914962 1.0948209033326015 0.9857777444755232 0.8259257729776973 0.7046102583305751 0.6870130043761252 0.770134738225041 0.8948101734909899 
1.3082600673612068 1.2724429230902914 1.1537870181630465 1.0042606692421794 0.8898159148759467 0.8506250463225792 0.8856263410597743 0.9550361633889825 0.997148805499493 0.9642916021733368 0.8619830570307864 0.753414302477412 0.7147350426234991 0.7766354165767814 0.9014545102019158 
1.2986212045896792 1.2467871271895856 1.1190373635832493 0.9648714176011102 0.8424687960660386 0.7856423297066624 0.7975637712265666 0.8561767960616733 0.9178826514113904 0.9321603031191974 0.8758019800948741 0.7811927111004828 0.7223712878808258 0.7593403099168426 0.8844667456531103 

1.1631717233081453 1.0282046318683848 0.8663326307999808 0.7522273743334629 0.7029622539523422 0.6937018569844915 0.709278430954982 0.7583655508184179 0.8427516294322273 0.9361678329225112 1.0016274010249155 1.0186466387771809 0.9904175097451465 0.9393601178574378 0.9039236489437736 
1.0083692798120416 0.9004632754430251 0.7929355961486175 0.7484973356681142 0.7721417697857389 0.8246320528137863 0.8704528081988682 0.8987832711787811 0.9115712270166493 0.9151330742631335 0.923749936707618 0.9509107326876693 0.9892300691227931 1.0141766913748769 1.0176754784866966 
0.8786890173413293 0.8174877540824591 0.7688866385898288 0.7837860185606693 0.8562760405542069 0.9393893579418988 0.9938206955572415 1.0060916670654805 0.9770619849545126 0.9221037005889765 0.8813050379781313 0.8994845974697403 0.9796149571445938 1.0707900729921316 1.1186610768811718 
0.8056568290967066 0.8041228822215394 0.7990635586331222 0.8409764482733337 0.9310709900585178 1.0254123501238135 1.0828088491260517 1.0874512179305513 1.03854928587675 0.9510514576987761 0.8716491777366157 0.8633388858687743 0.949250305957635 1.0799141906645375 1.1749990718425984 
0.7603112645017303 0.8127540485391207 0.8329978251399786 0.8771480228274299 0.9684385355710181 1.0777726382142112 1.158295671639288 1.1769079639104938 1.1210308225321384 1.0065402187770376 0.8900692596010944 0.8491027331621084 0.9229344635379949 1.0721628760022253 1.2091749800935532 
0.7096866107285331 0.785012172515434 0.8141559223670002 0.856797774199946 0.9526778997717344 1.0887534729694877 1.2142741757300686 1.271278981979415 1.223087644741595 1.083789192967613 0.9298787927583012 0.8617365229083451 0.9296405235554973 1.0930251260588257 1.256937035122193 
0.6679574151772302 0.7254362160373491 0.7449536360732893 0.7900236076854246 0.898562161958865 1.060192772283669 1.2260384972176708 1.3270044948606272 1.3051494020126868 1.1630388053238627 0.988718421155504 0.9059816444284726 0.976739690005861 1.1514018265521886 1.3192264071719968 
0.6792360942241613 0.6970944431740006 0.6883902476883427 0.7273796492217359 0.84166702545559 1.0093455115674903 1.1854974399007028 1.3122161092670517 1.3301511995679443 1.224590634057524 1.0680913876778804 0.9853763218126953 1.0486323442841328 1.2107621343578572 1.3533963283573742 
0.7605828324911093 0.7455444784237053 0.6975171355874363 0.7069516129189517 0.8016472290144705 0.9501484425717618 1.1095138594324334 1.2411206886062192 1.3008850601640323 1.2612541305782716 1.1578941417789534 1.0849825408076272 1.1142022256936803 1.221341013087006 1.3103284075838326 
0.8840065829703733 0.8490880802580856 0.7576277704308234 0.7143326763953848 0.7630154816813537 0.878609271029804 1.019351206634477 1.1539740877058418 1.2489747802582438 1.2709529485853033 1.2223516406052464 1.156469552124552 1.132657057860313 1.1571383427410007 1.182132104978834 
1.0171663994414688 0.9563431941558668 0.8151189287708747 0.7101284943770789 0.7060341429602217 0.7940271097246424 0.9329667145992437 1.0813105187707561 1.1973094657329488 1.2435629138379518 1.212350149152038 1.137761528772176 1.0686080731547536 1.0299820870393326 1.0165095971264253 
1.1580886309503509 1.05412964779041 0.8553370218795414 0.6953432910193043 0.6545896211757105 0.7324248770480142 0.8810004248879456 1.0391896858484007 1.1474821875841594 1.1669519282935723 1.103096854781718 1.003182323979412 0.9198458034424128 0.8791034519049066 0.8832833677611153 
1.3103468172301398 1.1698010893263724 0.9240528747460585 0.7277084261261177 0.6735597468580905 0.7554234740768885 0.9060628381016042 1.0439375683109424 1.1014009311986284 1.0506288393740855 0.9237844678489379 0.7961317183578244 0.7325874765703617 0.7484472747618905 0.8210447270788791 
1.4379221411980212 1.3067962724344302 1.0589657695775878 0.8557130110134388 0.802032530776041 0.8870828544565859 1.021262683015353 1.1050654084375813 1.0768656052342949 0.9365028767870166 0.7476475051745551 0.6056457391230785 0.5781494879084127 0.6647219326988452 0.8115102062412392 
1.4791746046390892 1.41011094389464 1.2194830958599225 1.0436678721347987 0.9927841933615588 1.0669910364909836 1.1720358424603003 1.197663285479469 1.0893237729797898 0.875292772396652 0.6467481921392273 0.5050559244628794 0.5047127178645994 0.627895259193306 0.8055570642608267 
1.4206194771529752 1.4213113849277736 1.3126033321063169 1.1842924930919472 1.1348867576448929 1.1851799732359432 1.2626198278708405 1.261455768956675 1.1246845344441465 0.886356756762516 0.6475653499351167 0.508407933394583 0.5090879154844681 0.6201786144089788 0.7752350642564025 
1.3361737254442358 1.3569795779025227 1.2918066033936826 1.1968816978957133 1.1473903571655824 1.1742130635352297 1.2357542766810787 1.2468464819137006 1.1446095197281558 0.941520755053385 0.7210498023161165 0.5775240131827157 0.5531849607051889 0.6250456730619867 0.7383456653363571 
1.3234891425530908 1.3021838853019356 1.2095945280556482 1.1056989529640635 1.0498979801477484 1.064149616157707 1.12156482289194 1.1610529991986587 1.1230303357734863 0.9914697263494232 0.8117318074483226 0.6626210845642205 0.6026539590502029 0.6375815190111325 0.7299008686941111 
1.3957642911542263 1.3151979520844634 1.1585090020707778 1.0123443948045336 0.9385218276604169 0.9450042501215735 0.9999591606709881 1.0569550409912012 1.0702170932821613 1.0095727633677112 0.8817114468990386 0.7379238638211447 0.6485788350849169 0.6578103330147311 0.7533997437222835 
1.4539351469524229 1.3564868200102078 1.1712342472102442 0.9950634946758409 0.8965066627283906 0.8825189636965978 0.9208555827472494 0.9756484755153934 1.0161184168892547 1.0099222155396843 0.9351617755424202 0.8099704169272062 0.700230232710292 0.6799247963906014 0.7694967359724174 

1.2078900053793196 1.0813461854950717 0.9285664043497613 0.8194813174680066 0.7611115376640378 0.7169287105486405 0.666863275685472 0.6294042859622409 0.6324040399164393 0.6819766104292682 0.7610629602970255 0.8427068416655554 0.9011579985940199 0.9258085978237448 0.9339488069197918 
1.0641943064448232 0.9694228607944214 0.869247143322737 0.8191225652703367 0.8191192238630111 0.8268567508207371 0.8054155575857209 0.7487350859258439 0.6760613165395373 0.6213276245985364 0.6210959768858735 0.6887901001057951 0.7938388125457368 0.882021799740059 0.9261500380497347 
0.9424477938402849 0.8891815926421981 0.8411821416882596 0.8404465573057236 0.8804838669769225 0.9191456099638233 0.9197909682812346 0.8690289666532711 0.7737559599333887 0.665809639569292 0.6024630192893867 0.6314429682792602 0.741757633048426 0.8643515498183113 0.9354470746105327 
0.889558427215221 0.8837070685748452 0.868792330803992 0.885243745594999 0.9362604951665977 0.9891838025178372 1.0102322465444005 0.981376924103884 0.8982873483009469 0.7801039853841005 0.6816716531391865 0.6673417367926848 0.7530354530903665 0.883174798777684 0.9797783600112803 
0.87137564591686 0.9077446017724593 0.9090231675942324 0.9201228560424097 0.9661557227579669 1.0332722656665219 1.087567764161184 1.0954203731781789 1.0356268845153351 0.9184778498867601 0.7996260765453533 0.7541835366206553 0.8171836401427404 0.9501694043949203 1.0747778608171865 