# vtk DataFile Version 3.0
vtk output
ASCII
DATASET STRUCTURED_POINTS
DIMENSIONS 15 20 65
SPACING 1 1 1
ORIGIN 0 0 0
POINT_DATA 19500
SCALARS Image float 1
LOOKUP_TABLE default
0.9857067278108402 0.9807383768749228 0.9598681943370185 0.9224711176846406 0.8708656824107298 0.8100036484902734 0.7465732412684748 0.6877528094129349 0.6399317018148902 0.6077082607529282 0.5933855740252283 0.5970408933878947 0.6170857714826127 0.6511051986565032 0.6967001616474313 
0.994340075453573 0.9942908977235868 0.9790511774553592 0.9466257899039064 0.8979603443649411 0.836941001599148 0.7697386331172166 0.7036775835588333 0.6459201154781483 0.6022873022712972 0.5764811306697638 0.5698496404194711 0.5816833494327937 0.6098903605053123 0.6518077673851724 
0.9903580962145946 0.9944568289358847 0.984594907307654 0.9574928682490883 0.9127288235069022 0.8530408061761469 0.7839230916505857 0.7126371919514148 0.6468961761398457 0.5935454211440353 0.5575405504462075 0.5414246022813278 0.5453618505606153 0.567636681064802 0.6054133183215805 
0.9746720795695125 0.9818123596298677 0.9768068004703575 0.955234029822855 0.9153632932137503 0.8587423976586694 0.7900495304237476 0.7162688675686569 0.6454106461001125 0.5850928383222581 0.5413123009392363 0.5176603829456811 0.5151055612370392 0.532312414882086 0.5663343648006507 
0.9499980281027668 0.9588535730750489 0.957955219667186 0.9419297759328927 0.9078461941762022 0.8560637738017401 0.7903348973357829 0.7171619715316638 0.6445870035495386 0.5807171796475351 0.5323321450448473 0.5038724276773991 0.49699097182469065 0.5106960894447947 0.5419668591204121 
0.9200877558859802 0.9292050027501265 0.9314522358822981 0.920729515508709 0.8930573032140617 0.8476524604717645 0.7872698078910682 0.717750872860175 0.6469131060468659 0.5830620871825535 0.5334808849611445 0.5032311496154964 0.49450016954263176 0.5065777146123853 0.5363879075683096 
0.8888815667566101 0.8967550106416778 0.9009807604396682 0.89497714873072 0.8739015292715344 0.8359160827224312 0.7827493818323313 0.7194409876972752 0.6533556693247528 0.5927227502638094 0.5450540864683592 0.5158005938871735 0.5075256633479637 0.5197300291671727 0.5492969568744609 
0.859819045142944 0.8649637634245232 0.8698188378782424 0.8675701303559372 0.8527192614896533 0.8224974894693954 0.777622840997395 0.722238373416206 0.6630712490165084 0.6080359627169171 0.5646259287190515 0.5384687519246131 0.5323587879718582 0.5459465341614385 0.5760957480153811 
0.8354545259206914 0.8364922671016933 0.8405075579823488 0.8406927279677489 0.8311108512991391 0.8082140120893075 0.7717672307950104 0.7249725340826545 0.6737869308557806 0.6256214106438113 0.5877479217630804 0.5657952828648993 0.5626736928946566 0.578145869202366 0.6090953327697323 
0.8174037118527617 0.8131724489385477 0.8148714677098462 0.8159164801332429 0.8101477197878183 0.7934085971080832 0.7646046671131802 0.7260007695080751 0.6827062608584683 0.6414962601819219 0.6092714976372419 0.5915339560038999 0.5912347296449244 0.6082436511187076 0.6395277664764855 
0.806540470468131 0.7962242368302924 0.7942799960112005 0.7945341456529234 0.7908092365125157 0.7785200724982783 0.7558342448555867 0.7241256481819762 0.6876300602524962 0.6524096047741401 0.6248981194399656 0.6103920293961617 0.6118507282294946 0.6292802872761326 0.6598205539625671 
0.8033009162110769 0.7865612408276825 0.7799727551815557 0.7779273681468373 0.7744186570816144 0.7646145129088108 0.7460851184460198 0.7193931179628269 0.6879180024502117 0.6569795269397851 0.6324963835993641 0.6195240100807854 0.6210342140258275 0.637227320978541 0.6655258687488447 
0.8079485314248475 0.7850262875642967 0.7732758454379434 0.7677786583987783 0.7628692020765561 0.7536459254011513 0.7372327254754439 0.7134838580649111 0.6849716588355959 0.6562799268682482 0.6327991519355008 0.6193393978072875 0.618913708570653 0.631992220467848 0.6564005623965067 
0.8207006041759984 0.7924525870003636 0.7756005212059707 0.7660139477200691 0.758520060744366 0.7483176733129694 0.7322389841933018 0.7095458169758265 0.6820719612800156 0.6536934086817882 0.6292793699009315 0.6134053209834276 0.6091631384260402 0.6173706222156671 0.636373787399177 
0.841688057178528 0.8095290716930801 0.7882106819407172 0.7744709511732741 0.7637665592675069 0.7515575055742836 0.7345370730636503 0.7114950198136457 0.6836031669824992 0.654065823710574 0.6272423753544903 0.6074831226810192 0.5979882115458871 0.5999868298145924 0.6124447421601059 
0.8707881591804114 0.836526631356124 0.8118353753048334 0.7943909007331471 0.7804048909189002 0.7657503651284975 0.747129113269424 0.7229769193406738 0.6938788431809467 0.6624000939128355 0.632392979360391 0.6079762150595328 0.5924644582213959 0.5875330748335926 0.5928354730891666 
0.9074094219816994 0.8729889651365894 0.8462567590149234 0.8258931436794917 0.808982124131294 0.791952760149854 0.7716549745487301 0.7462817179152198 0.7158985986423784 0.6824527264889565 0.649274108438992 0.6202174366094781 0.5986841541600215 0.5867908746363768 0.5849050534411425 
0.9503111827757904 0.9174959980089392 0.8900086706571474 0.8675970879942161 0.8483276145327424 0.8293187431875287 0.807698178392685 0.7815170913039944 0.7503773086160617 0.7156131294769786 0.6799946304191596 0.6470492728406451 0.620198564196995 0.6019505486819371 0.5933667126308143 
0.9975136624904228 0.9675750105325776 0.9402811431111322 0.9165085143848715 0.895406511319096 0.8749041215975643 0.85252373464185 0.826263391691496 0.795303671383062 0.7603551118866455 0.7235681680383824 0.6880500215222336 0.6571376663126706 0.6336369172110959 0.6192376822871601 
1.0463152699687188 1.01978346805485 0.9930619165426413 0.9682090518467827 0.9455432988699486 0.9239079162266141 0.9013202347370789 0.8757992187526091 0.8461335599132019 0.8123850997542734 0.776007248321691 0.7395698994688592 0.7061898169145485 0.6788398831595209 0.6597334944535513 

0.9071558810134278 0.917475259777483 0.9160445041432052 0.9011260634915935 0.8734637434002375 0.8361816816043425 0.794150731865875 0.7530151043439692 0.7181463937455449 0.6937894249457043 0.6825893234409016 0.6855664635141242 0.7024724758782984 0.7323549960707275 0.7741107145855333 
0.9171392018971838 0.9299809788830598 0.9319230163104469 0.9200514640493593 0.8938919939057527 0.8555955992119051 0.8095325031394333 0.7614336189012942 0.7173215707560467 0.6825043112938859 0.6608600522641065 0.6545396650495172 0.664084280829298 0.6888395178757657 0.7274762845898183 
0.9162645670025714 0.930688416089587 0.9354633689617671 0.9265993729876505 0.9024416691623742 0.8641311252998956 0.8154299239150916 0.7619967709779726 0.7103232251395654 0.6666056809966919 0.6358140598654662 0.6211378024778619 0.6238694164016977 0.6436619861683702 0.6790047829485714 
0.9055910037861341 0.9204428301699993 0.9273563012386121 0.9214154449973091 0.8998701651636521 0.8628504991318667 0.8134211242625982 0.7570047878017133 0.7003516498526735 0.6503237141324409 0.6127801175394144 0.5917918607224489 0.5893049321476423 0.6052426571112492 0.637928014933088 
0.8876599429452282 0.9016677323747018 0.9099007253617974 0.9067091695067347 0.8883764734881391 0.8540594037456019 0.8060614431197878 0.7494138700338965 0.6909039066902225 0.6378073591705536 0.5966282657920207 0.5721145936860458 0.5667222759361966 0.5805706677796137 0.6118078725266591 
0.865836926103429 0.8776764509897407 0.8862821568730442 0.8854926686873481 0.870790597049829 0.8404346196064586 0.7959352944831241 0.7417978800334766 0.6846320364644015 0.6318683263202279 0.5903927283722196 0.5654003748028723 0.5596875482162279 0.5734736971937467 0.6047095399749446 
0.8436217061423252 0.8519625909908012 0.8598518929319415 0.8608546046746229 0.8498454264478258 0.8242941931711306 0.7849222154693668 0.7356056348889358 0.6825855380509583 0.6332022549758046 0.5944658823027452 0.571787680325114 0.568130609009455 0.5837147451219281 0.616270158862238 
0.8241002962935559 0.8276520156978563 0.8335964841225351 0.8354639340782095 0.8277297724696416 0.8072120516847369 0.7738820305446434 0.7309219248394693 0.6840499055845836 0.6403031419718231 0.6065842688664771 0.588310481989858 0.5884546259854414 0.6071524404273593 0.6419031030252481 
0.8096319435403906 0.8072099622503136 0.8098880510121697 0.8113874934954571 0.8059968245222846 0.7900389822495882 0.7628066805726306 0.7267641024981747 0.6869967246752476 0.6500701904831544 0.6225900127136769 0.609807074531593 0.6145809308781262 0.6369073237030468 0.6740690015997656 
0.8017722010292515 0.7923960431571891 0.7904954386325723 0.7901842119236993 0.785769333624315 0.7732458576847939 0.7513258712590324 0.7217701538143212 0.6889684107075033 0.6588967512870921 0.6377243239443185 0.6304113543668213 0.6396246665335383 0.6652027755681363 0.7042584734791204 
0.8013628629478292 0.7843827515512771 0.7767526642005164 0.7731488322654594 0.7680862840395974 0.757401366313509 0.7393423562474254 0.7150144234859469 0.6880918918884863 0.663892711040923 0.6480616595829516 0.6451937765395747 0.6577297142132082 0.6853739811265085 0.7251493071436453 
0.8086902261139771 0.783921797183938 0.7697489438052477 0.7615458510292802 0.7542042501823328 0.7435658768843455 0.7275430655614742 0.7066584488643889 0.6838874172935209 0.663863788726669 0.6516650960443459 0.6514907928508943 0.6655624684483162 0.6935090320613714 0.7323715644835224 
0.8236264932801745 0.7914597452223171 0.77042709168838 0.7567036931798002 0.7457039785225502 0.7334294245740318 0.7175883353107514 0.6982104569805775 0.6776148845881774 0.6597573126416393 0.6491390309309899 0.6495659974922142 0.6630766257591264 0.6893063559064992 0.725441042391236 
0.8457104839478295 0.8071546645221432 0.7795378161503453 0.7599119824759444 0.7443392188231045 0.7291232755285973 0.7118990310620323 0.6923014220991262 0.6720515886531946 0.6544526733129542 0.6434406266623759 0.6424473622156105 0.6533770539196039 0.6759619575759327 0.7076627197576274 
0.8741702156086562 0.8308035270607336 0.7974683792340322 0.7721500370185196 0.751665893493725 0.7327527964219577 0.7130980674429953 0.6920416885224733 0.670771379829168 0.6519708562698824 0.6390273969337473 0.6350198811274644 0.6417634021992978 0.6591685066079079 0.685088293619139 
0.9079203694449308 0.8617315860992223 0.8240172709608307 0.7937405327589776 0.768569256200034 0.7457938711987168 0.7232734640498284 0.7001499304521609 0.6771408441731414 0.6563412807113489 0.6406002346257781 0.632652283043057 0.6342497319684489 0.6455385464422663 0.6648546803601157 
0.9455715928368255 0.8987059110415485 0.8582044786840429 0.824047496558997 0.7948398022279664 0.7685369295836059 0.7432815416332834 0.7181082492769483 0.69332150217758 0.6704494481252269 0.6517985335944252 0.6397456451050101 0.6359767088014147 0.640894222093152 0.6533686451680706 
0.9854692981903338 0.9399164959355866 0.8981880736674227 0.8613185571723261 0.8289291502926237 0.7997431669868916 0.7722900366200462 0.7455797850346507 0.7195517793600025 0.6951765426880127 0.6741950886604721 0.6585863991300243 0.6499310595625293 0.6488670736497492 0.6548059446933726 
1.0257515097638485 0.9830335898285859 0.9413154310603656 0.9027206555772701 0.8679577041045922 0.8366093993784829 0.8076843106217007 0.7802406622574031 0.753890681642197 0.7290438279767071 0.7068344748519655 0.6887772566118596 0.6762735860286203 0.6701338900124462 0.6702717096599345 
1.0643964885476138 1.0253185530069135 0.9842925356855894 0.9445592086668453 0.9079717550667488 0.8750485837918883 0.845355118027648 0.818058334184464 0.7924708390236783 0.7684266615893743 0.746397762833325 0.7273469500043707 0.7123936840777786 0.7024215951954945 0.6977670337270458 

0.8500173889279523 0.8737200124899468 0.8899217383493936 0.8960075920842054 0.8912586974455606 0.8769353438388198 0.8559152896925933 0.8320335129935443 0.8093316215524339 0.791422242358351 0.7811115235395268 0.7803238754345674 0.7902694188864416 0.811718446248791 0.8452212212175417 
0.8622066202078068 0.8857946451041051 0.9027335566741965 0.9094706607734351 0.904285905113518 0.8876267378677406 0.861948004861566 0.8311553201528766 0.7998376962370375 0.7725023847142389 0.7529898128759226 0.7441650321418225 0.7478824041696585 0.7651340812202555 0.7962460174338881 
0.8646663977489583 0.8870759039474476 0.9039850176188969 0.9110110797945683 0.9054968974952309 0.8870816376135489 0.8577401534936012 0.8213406064915346 0.7828799495106457 0.7476123710316795 0.720277788039377 0.7045749554646984 0.7029303794375624 0.7165205524130455 0.7454392857180593 
0.858512414203694 0.8785962145698202 0.894678917256025 0.9016984110194203 0.8961646360366526 0.876943611717056 0.8454877811533917 0.8055146262184423 0.7622640729075976 0.7215466814519719 0.6888128080804002 0.6684301147340406 0.6632717162790077 0.674618604248259 0.7022976046283056 
0.8461117081662232 0.8627099048510398 0.8771516591697542 0.8838815500934266 0.8787176883822042 0.8598197748239546 0.8280961695199675 0.7870060484687401 0.7418562943601944 0.6987971464025934 0.6637634638929613 0.6415854925537788 0.6354178276945451 0.646534102051907 0.6744384728510332 
0.8305436592897818 0.84251706924027 0.854457526684424 0.8605275523215938 0.8560246941279392 0.8384995728657609 0.8083201751578207 0.7685958464239607 0.7245289281440056 0.6823857370874116 0.6483438708805261 0.6274692577333377 0.6230122704485421 0.6361109039382548 0.6658812637364605 
0.8150490413172075 0.821291815635795 0.829784105060953 0.8346298092091705 0.8307982107901307 0.815354523069073 0.7881576440892747 0.7519002412541144 0.7115275245094007 0.6732103153216823 0.6431330756743078 0.6263724315440699 0.6260895475445691 0.6431604517590054 0.6762522681805728 
0.8025813699670906 0.8020376924539001 0.8060280823434369 0.8088195658409277 0.8052555300924767 0.7920594527594953 0.7686392335073996 0.7372340518461479 0.702409501042188 0.6700573951351328 0.6461583965704935 0.6355975145012788 0.6412827280013377 0.663721840973163 0.7010911234843439 
0.795511617773472 0.7872204461710128 0.7855771134582749 0.785218691283431 0.7810636822947367 0.7696493480647444 0.7500138344621284 0.7239375665263613 0.6955207843812616 0.6702319475663582 0.6536768258497836 0.6503852609933399 0.6628853004440219 0.6912452218159947 0.7331399957914698 
0.7954782969305331 0.7786595632870356 0.77026457600003 0.7654817781419255 0.7594939894927882 0.7488108740349957 0.7321993524692233 0.7110051319870239 0.6888157089509119 0.670576094632317 0.6613934217335337 0.6653269632079293 0.6844451526736507 0.7183496244438224 0.7642428477501592 
0.8033407419855724 0.7775191870349696 0.7614168729966221 0.7509222549141218 0.7416517314007274 0.7302410093521893 0.7152945865951231 0.6977715905190364 0.6807346865673128 0.6685486503115056 0.665746322846443 0.6758509751213686 0.7004410609645746 0.7386707955768381 0.7873399274331413 
0.819190885316579 0.7843350224537351 0.759908651963851 0.7426134824135348 0.7286439579414431 0.7149042235131915 0.6999485159949513 0.6844146985405336 0.6708572867654257 0.6630413242180416 0.664892217626493 0.6793764467160134 0.707596217385302 0.7483187804718536 0.79804713295854 
0.8423997810815255 0.7990394521721409 0.7661731004149391 0.741395169557941 0.7215966007249485 0.7040774134407041 0.6874513830879191 0.6721103392146375 0.6601376534462557 0.6547070312875714 0.6591355877006614 0.6758459489881697 0.705510546098718 0.7466000083966688 0.7954520951629354 
0.8717019608235758 0.820983644509682 0.7801623071500673 0.747776070310614 0.7215068893372871 0.6991621440130907 0.6795187478332917 0.6628012426047546 0.6506704868617056 0.6457343546435709 0.6507204632830493 0.6675400689549026 0.6964998072891498 0.7358783839816757 0.7819905706924063 
0.9053351682377605 0.8489821080017893 0.8012927269661864 0.7617786475067985 0.7289878218217746 0.7013317871699041 0.6778461695768866 0.6586657025856137 0.6450814000151474 0.6391676849393676 0.6430884334663055 0.6582807511904848 0.6847505943410507 0.7206867259515098 0.7625173142829721 
0.9412449341022233 0.8814082333458425 0.8284255939179698 0.7827987198063477 0.7440022793098288 0.7111365823962218 0.6835832460034214 0.661460416863591 0.6457403252710016 0.6379949649175035 0.6398464705137812 0.6522867731336488 0.6750726134747774 0.7063862436104186 0.7428839737019876 
0.9773354045122223 0.9163480496822205 0.8599174023830546 0.8095451573449183 0.7656836797787628 0.7281969068780628 0.6968917993645543 0.6719372845705897 0.6540327518167429 0.644271996999418 0.643746280193046 0.6530138063710142 0.6716089354664726 0.6977601183718144 0.7284323829090139 
1.0117140883205575 0.9517856843950592 0.893741122046487 0.8400891447665341 0.7923033919365612 0.7510775221321454 0.7167151625557794 0.6894965397121264 0.6698872600508025 0.6585178093457785 0.6559448298569909 0.6622821471893694 0.6768381816395622 0.6979027319945598 0.7227884589741882 
1.042858200406878 0.9857668636572825 0.9276434545576053 0.8720082133671464 0.8213914272905405 0.7773723808998959 0.7408130755721701 0.7121573894707746 0.691668537636945 0.6795190362442037 0.6757127459188929 0.6798865851241497 0.6910889436107372 0.7076477477740432 0.7272189967731334 
1.0696395440109616 1.0164833103155426 0.9592861822620053 0.9025783562851544 0.8499697898354314 0.8039668454699438 0.7660383354409401 0.736833588914804 0.7164365050659499 0.7045586871725537 0.7006216457526994 0.7037352985712203 0.7126283305697692 0.7256101056137961 0.740636750352947 

0.819256007895888 0.8535137850748746 0.88427849491125 0.9083806200473024 0.9238929618370381 0.9303464601582851 0.9286169735250954 0.9205863483720467 0.90872426982182 0.8957285976040922 0.8843087729546202 0.8771204309273135 0.8767869960020752 0.8859009675662731 0.9068989578683402 
0.8338496066645783 0.8654185809048188 0.8941922550338655 0.9163197965279415 0.9291316351376632 0.9315637613104197 0.9242092192046637 0.909060147882707 0.8890693267145771 0.8676773730718721 0.8484214216959419 0.8346786345692382 0.8295275247396919 0.8356570777050484 0.8552362819086501 
0.8391153756000294 0.8668627145662146 0.8927292867778427 0.9122904219220748 0.92221577275271 0.9208845748776241 0.9085945881812253 0.8873881572421658 0.8606044292668219 0.832308523780357 0.806740785577977 0.7878817325664561 0.7791615984962236 0.7832821573391553 0.8020836012586535 
0.8361521549883848 0.8589879850408378 0.8811250146272136 0.897707296033527 0.9048575629196269 0.9004600899119056 0.8845147631989453 0.8590471614635975 0.8276621770598209 0.7948929809136278 0.765511316453007 0.7439329983748498 0.7337908156904077 0.7376793667639582 0.7570254210015736 
0.8271769953167859 0.8440962363344752 0.8617633907998143 0.8750633580421898 0.8797153098204697 0.8731948053563302 0.8552160521979071 0.8277228661625321 0.7944535529337794 0.7602291486358771 0.7301490711668551 0.7088614710737022 0.7000200162716582 0.7059664656830612 0.7276132418563639 
0.8151074073758445 0.8251888251320186 0.8376717678696798 0.8473748582742182 0.8497809268015054 0.842066189953216 0.823689830228635 0.796459647836071 0.7641166608727319 0.7315826881648427 0.7040680679721719 0.686234716831288 0.6815610940867999 0.6919802644441543 0.717784927372991 
0.8031246042867789 0.8055092580317723 0.8120507579671471 0.8177037623134137 0.8178975980015584 0.8096378018963905 0.7921791266961121 0.7671569612673267 0.7381983550735217 0.710148630258222 0.6881188391677951 0.676571247497369 0.6786188160561096 0.6956379383205339 0.7272063985638411 
0.7942793261653748 0.7881583038505917 0.7879139558758262 0.7888361917739032 0.7864892266646618 0.7778497124907576 0.7620373171001179 0.7405007557991331 0.7166600476493323 0.6951306974910955 0.680738262372132 0.6775562673069796 0.6881669200108945 0.7132675866209607 0.7516510668556285 
0.7911628665386679 0.7758015147226479 0.7678513441927534 0.763121466310877 0.7574942624207422 0.7480646580181002 0.7339015740963638 0.7162758118384619 0.6983365054392917 0.6843497504557997 0.6787063589831331 0.6849412179290767 0.7049809340308192 0.7387616644080002 0.7842588955844357 
0.7956420059229119 0.7704551717587852 0.753885849637402 0.7424208269812081 0.7324289592583387 0.7212676948117261 0.708048893429348 0.6938948833479696 0.681650440114821 0.675150802722289 0.6782467399550713 0.6938324445350074 0.7231037882822238 0.7652027513609444 0.8173009424189567 
0.8086557961168953 0.7733294271523072 0.7473792504212443 0.7280957878419285 0.7124800021541894 0.6982856873520374 0.6847642148664791 0.6729347850599968 0.6653319111828113 0.665315759624981 0.6761363342210801 0.6999945607651096 0.7373322721524499 0.7865156682723909 0.8439736012251855 
0.8300891389903248 0.7847236497193205 0.7489602594947632 0.7209839779911901 0.698546266279713 0.6799150313058943 0.664574545848818 0.6534961100029754 0.6489199461154731 0.6537188469106657 0.6705208553999997 0.7008255837312666 0.7443443800332129 0.7987324910102909 0.8597801744763452 
0.8587574495098962 0.8039938406218161 0.758479497121607 0.7213506091290998 0.6911992644474949 0.6669061897945049 0.6482741224118496 0.6362855954468344 0.6329172755999493 0.6405660387127751 0.6612471284493239 0.6957852228552275 0.7432207993408642 0.800598375382184 0.8632062576928066 
0.892540839483133 0.8296266212172706 0.775022664618923 0.7288437113478149 0.690586592666224 0.6598242713057069 0.6367530772689297 0.62242494640736 0.6185914403299416 0.6271995557580529 0.6496800293407176 0.686230338034248 0.7353012740533499 0.7934470706934299 0.8556083745613211 
0.9286844368892966 0.8594450847116215 0.7970177049284958 0.7425006240352017 0.6963381181204359 0.6588575640767907 0.6307130298844796 0.613079886810764 0.6075249283385781 0.6155773782955395 0.6381197290124657 0.6747777323116114 0.7234996578728293 0.7804733525349525 0.8404469614159747 
0.964235740638892 0.8909372140084847 0.8224487075253756 0.7608424353289124 0.7075369453121172 0.6636622603047152 0.6303842921300479 0.6090502615315136 0.6010804150490546 0.607617749556123 0.6290314326826282 0.6644268019993361 0.711328594314998 0.7656699332704338 0.8221463515691603 
0.9965357371041957 0.9216497077966797 0.849147509541564 0.7820573732602562 0.722787970243702 0.673309419954463 0.6353449631962714 0.6104561170690638 0.599950492790431 0.6046116650708463 0.6243227286836935 0.657707209886443 0.7019264984031808 0.7527461502636075 0.8049206118253183 
1.0236411464683215 0.9495501357468998 0.875092637273567 0.8042309713649434 0.7403716365498447 0.6863531884811019 0.644493754647036 0.6166054880950232 0.6039120271649295 0.6068577438094557 0.6248562791673314 0.6560709164898316 0.6973352501699582 0.7443026721026019 0.7918614647216394 
1.0445521708916625 0.9732497428759489 0.8986259107359903 0.8255519608021467 0.7584315845533546 0.7009901444894646 0.6561691972099227 0.6260608297117162 0.6118275703360755 0.6135880706389435 0.6302925478105562 0.6596484535485468 0.6981718186151685 0.7414259801659243 0.7844689253272833 
1.059163448543058 0.9920097337237644 0.9185136562660706 0.8444246846475117 0.7751312945646057 0.715250258385384 0.6683626194493811 0.636860163387849 0.6218603349576444 0.6231634343759611 0.6392538707037311 0.6673738513606212 0.7037106613060132 0.7437302521753845 0.7826604243904338 

0.8146630196567208 0.8560806529274786 0.8975026905476517 0.935570297405904 0.9675061257866103 0.9913939177793095 1.0062626063131117 1.012044629694159 1.009497021921566 1.0001531724752275 0.9863237288692486 0.9711074209768744 0.9583299417190713 0.9523198787508393 0.9574624382529275 
0.8312712080047383 0.8678275499142486 0.9047815480108186 0.9383364894528745 0.9652452932195167 0.983251692093095 0.9912946186373875 0.9895148349188877 0.9791416298837061 0.9623386830735791 0.9420569269505448 0.921894334795226 0.9059191471791745 0.8983932570835369 0.9033469316693253 
0.8382784741284678 0.8688227313861572 0.9003232061871205 0.9286445654882459 0.9501588071292659 0.9623307495376833 0.9640322346793263 0.955593988976487 0.9386610268132851 0.9159396952424005 0.8909112729115162 0.867549617797993 0.8500372465500704 0.8424447384038253 0.8483359519765725 
0.8367033439804655 0.8602363049160776 0.8855006443494288 0.908149542538993 0.9242870005890055 0.9311758336353089 0.9276474918605118 0.9141940928702968 0.8927959829894234 0.8665797594267424 0.8394059587421538 0.8154589627697093 0.7988697483201074 0.7933639654302725 0.8019093220151371 
0.8286445740940648 0.8443317414368338 0.8627435715398226 0.8794731315482366 0.8904918901832862 0.8929545746057702 0.885687089447342 0.8693117062490892 0.8460501992562878 0.8193046213622713 0.7931360311190184 0.7717454729017209 0.7590214673924769 0.7581725845062791 0.7714301217732503 
0.8169814574177277 0.8241195585010969 0.8351442684123616 0.8457573137757858 0.8519513766209489 0.8508832693223536 0.8414197177440098 0.8242868956832492 0.8018521808443096 0.7776406546794663 0.7557242880275855 0.7401159147678639 0.7342624379950061 0.7406796360136048 0.760723669283866 
0.8050233004392965 0.8029876451041811 0.806076539929644 0.8102770665783113 0.811768293590409 0.8078324328498295 0.7974363270615211 0.781395033701514 0.7621346540243282 0.7431579911263368 0.7283649524464496 0.7213831553776028 0.7250292600400148 0.7409642628084506 0.7695465567345149 
0.7961260700879276 0.7843328174061376 0.7788567864074282 0.7761440281646169 0.7727277982249356 0.7661467782831518 0.7555390944197778 0.7418086278819388 0.7273707016157794 0.715580202240821 0.7100042796221641 0.7137136492213875 0.7287344937909652 0.7557416502860195 0.794003930118932 
0.7932846114776343 0.7711974979347184 0.7564432305838834 0.7460862865325304 0.7371748976447368 0.7276360339335757 0.7168587130604099 0.7058512350595841 0.6969709065462844 0.6933273892172368 0.6980282884043534 0.713454572644966 0.740724341329723 0.7794393191742383 0.8277301161581948 
0.7987204454928755 0.7659168789632683 0.7411603376979728 0.7222694116305851 0.7069519683578508 0.6936482627211769 0.6820811126974565 0.673392335456752 0.6698572457945736 0.6742752117645611 0.6892076706031839 0.7162596730418435 0.7555748350460829 0.8056477838977117 0.8634733646589642 
0.813513180805513 0.7698038839017357 0.7344518698657784 0.7061349341196902 0.6833418409237715 0.6651374109002474 0.6516586706305924 0.6442193366851272 0.6450095718880596 0.6564848409178407 0.6806145047170538 0.7181896346182505 0.7683660447848768 0.8285522263858052 0.8946626502694331 
0.8373520602708697 0.7829277256758463 0.7366956822421432 0.6982642409716684 0.6669965232441605 0.6426743924348751 0.6259217050567144 0.6182666045003663 0.6218269144454157 0.638707459836693 0.6702758440663742 0.7165146422838559 0.775626913436052 0.8440061523766716 0.9165902814319958 
0.8684931467009033 0.804057187001132 0.7471365336062465 0.6983081874512768 0.6578742235666593 0.6264046808296097 0.6050713021314095 0.595658478605401 0.6002346054793023 0.6205670614766988 0.6574401583467823 0.7100678015789372 0.7757735858322751 0.8500467485609512 0.9269906091168629 
0.9039826835785562 0.830825861270087 0.76399180008758 0.705035216048986 0.6552349521338195 0.6159991829941377 0.5890953144323278 0.5766014865579484 0.5805640919308913 0.6024385293325204 0.6424626396940726 0.6991439929963769 0.7690247276421531 0.8468256246649221 0.9259809310520952 
0.9401471552553611 0.8601293610592539 0.7847515160629642 0.7165321573723624 0.6577423174730608 0.6106595003302119 0.5776815821797952 0.5612117172506587 0.5633019187726378 0.5851264403192675 0.6264222188064211 0.6850630796437921 0.7569178957294457 0.836083770601049 0.915498480546052 
0.9732705374608221 0.8886953060648147 0.8066361440015251 0.7305455930154672 0.663685285548103 0.6092180914441306 0.5701959022607105 0.549371557373629 0.5488278738859141 0.5694889998039986 0.6106373895050767 0.6695853088313933 0.7416335432554613 0.8203941659854546 0.8984721631279758 
1.000306355391147 0.9136997455701058 0.827113674897002 0.7448951599065591 0.6712826919665186 0.6103288467343176 0.5657538435589153 0.5406788058800998 0.5372389455763207 0.556136475423172 0.5962413782809829 0.6543685013010007 0.7253427314522806 0.8024116810646624 0.877989158850749 
1.0194362360124036 0.933266539608012 0.8443384177001508 0.7578482338227504 0.6789884078711409 0.612695818899669 0.5633652105298562 0.5344989051302034 0.52830215088159 0.5452792587548677 0.5839228834811069 0.6406026016521221 0.7097409649901708 0.7843163348972996 0.856662343193575 
1.030308238654778 0.9466998305593692 0.8573782751149156 0.7683398013362482 0.6856987876965656 0.6152607018019298 0.562092026206153 0.5300827197629319 0.5215212549099526 0.5367337278059672 0.5738636188243765 0.6288749966471009 0.6958419568214563 0.7675414452289988 0.8363042782852546 
1.0338692490596515 0.9543679955795759 0.8661517231093724 0.7759609881572369 0.6907882364347463 0.617278006155645 0.5611533196739401 0.5266890027461408 0.5162639528828133 0.5300413004735686 0.5658378170493489 0.619241811375212 0.684016047197742 0.752779440368415 0.8179061685755823 

0.831571837319253 0.8766682582077775 0.9245781179403694 0.9721102705336431 1.0160472499315956 1.0534130805354884 1.0816843577079056 1.0989937078302496 1.1043657963173876 1.097988332941394 1.0814688614958472 1.0579835359842553 1.0322068104673705 1.009933515994461 0.9973672190381402 
0.8495388163981158 0.8883140330292034 0.9298658695149469 0.9707662414274141 1.0075832924140355 1.037265559404082 1.057426062903843 1.0665546307630867 1.0641959576537237 1.0511115506646278 1.029405698198002 1.0025564173492754 0.9752710193289421 0.9530963793960742 0.941759770160133 
0.8571232035702432 0.8884416797013468 0.9226443435358263 0.9561504618487316 0.9853993641731376 1.0073359623469154 1.019756397125298 1.0215220227329045 1.012676196769535 0.9944968770026258 0.9694938090329371 0.9413258774921888 0.9145894627883303 0.894427291430144 0.885936098612275 
0.8551973722551475 0.8781554185013712 0.9043057744422469 0.9300211316950052 0.951714038641657 0.966405441503379 0.9721180430896195 0.9680839843219446 0.95479824451305 0.9339646353126964 0.9083705477758662 0.8816996369969025 0.8582640249705059 0.842624902020948 0.8390823554270653 
0.8457611397649105 0.8596752916146467 0.877298298226801 0.8950824884786072 0.909532105272519 0.9178336616177941 0.9182810654769329 0.9104683101344843 0.8952783239307553 0.8747276489023373 0.8517287084701518 0.8298106660220854 0.8128098554703473 0.8045173151034062 0.8082664180004904 