# vtk DataFile Version 3.0
vtk output
ASCII
DATASET STRUCTURED_POINTS
DIMENSIONS 15 20 65
SPACING 1 1 1
ORIGIN 0 0 0
POINT_DATA 19500
SCALARS Image float 1
LOOKUP_TABLE default
0.8056259148828735 0.7926722251366155 0.7928298925583186 0.8054223445198073 0.8280774087792804 0.8570168253671647 0.8875796888367554 0.9148977610444899 0.9346122129431982 0.9435120464111395 0.9399862785739246 0.9242132339793316 0.8980557316431267 0.864682648120678 0.8279860586412752 
0.7765291864611932 0.7679784276581837 0.7723688974414289 0.789097316048955 0.8158673958902983 0.8489877629852738 0.8839006556436403 0.9158546634991908 0.9406083126363214 0.95504485940884 0.9575936551329141 0.9483874389145603 0.9291319673316417 0.902716090080309 0.8726373433307216 
0.7485796675847193 0.74429507416798 0.7528810075652964 0.773727847658247 0.8045446910547942 0.8416739359949265 0.8806299610474407 0.9167705672684012 0.9459859326106705 0.9652865969171739 0.9731901960890053 0.9698431309842391 0.9568615558165809 0.9369272513842254 0.9132187157116725 
0.7249339540127838 0.7250723120292863 0.7382780338866081 0.7637406833664849 0.7989735626814567 0.8401715196183369 0.8827828505812395 0.9221969054809749 0.9544284501172907 0.976680731232826 0.9876914601690632 0.9878056220804945 0.9787689540100449 0.9632870085215571 0.9444375349979494 
0.707834365350185 0.7129311658220258 0.7316432986868189 0.7626710349355418 0.8030306200174984 0.848495989195087 0.8942405582525422 0.9355692497803398 0.9686148604178779 0.9908793314453629 1.0015284232479897 1.0013927797872229 0.9926814246853936 0.9784657542408366 0.9620335885956587 
0.6985936977546068 0.7095275115810115 0.7349529252779848 0.7727459679179866 0.8190820228554445 0.8690080635615228 0.917195808800176 0.9587493806236451 0.9899308272199097 1.0086806608677594 1.0148461461702087 1.0100813198249416 0.9974406250418085 0.9807423076901639 0.9638185983518944 
0.6976189852343734 0.7154665470532683 0.748887005211744 0.7946145795266805 0.8476687796650179 0.9020993785813732 0.9518871805988508 0.9918531027469726 1.0184250381118956 1.030134791844338 1.0277624803762802 1.014105607932052 0.9934143344740979 0.9705920515666052 0.9503011434176794 
0.7044640526802228 0.7302822984464766 0.7727667405729453 0.8272755753612786 0.8874553172010827 0.9461862500710588 0.9966526563324754 1.0333667234595203 1.052980192693 1.054750870380888 1.0405869708189504 1.0146617930373631 0.9826628374568646 0.9508009768770951 0.9247460904977304 
0.7179172731806899 0.7525046727951172 0.8046471953473325 0.8682294273177953 0.9354572362781973 0.9980093992113559 1.0482784560950487 1.0805063546765616 1.0916342706814919 1.0817295859068294 1.0539197716906052 1.0138422134755256 0.9686978587380741 0.9260618377001536 0.8926448104823848 
0.736138681757164 0.7798321359448716 0.8415753983547444 0.9138470074244892 0.9875169426889475 1.0531847198613287 1.1025692487783751 1.129736126383404 1.1319701270841298 1.110153957904024 1.068590899568573 1.014296769508709 0.9558716005884935 0.9021295845675406 0.8607057439063766 
0.7568565975158705 0.8094110565955771 0.8799933258157315 0.9599057868215368 1.0389494138711726 1.1069047682675675 1.1550288453211772 1.1773398426213957 1.1714909953631105 1.1390956294384145 1.0854495194269744 1.0186905499009304 0.9485246597063646 0.8847166480448646 0.8355830376500712 
0.7776199281335257 0.8381977890434479 0.9162322412632257 1.0022079315095431 1.085245136314915 1.154662320582562 1.201523741600944 1.2199388595577885 1.207914300055057 1.1676248423964561 1.1050578129924715 1.0290819401944336 0.9500819819797363 0.8783697133939761 0.8226186364910303 
0.7960837766876848 0.863354652946676 0.9470186940060799 1.0371721765600088 1.1227026935322733 1.1928634323505878 1.2388095502864132 1.2548672295535601 1.239342298151763 1.1947422101310976 1.127373095423911 1.0463692602567924 0.9623010307857035 0.8855739691269415 0.824867071884614 
0.8102898217638325 0.8826147192476915 0.9699020669670708 1.0622910706455948 1.148875309027562 1.2192207835066218 1.2648321498082384 1.2803502683149977 1.2643001444956004 1.2192728274382572 1.1515088150928547 1.06994148006574 0.9848429116047165 0.9062779335253512 0.8426043074778542 
0.8188953443331802 0.8945491082993124 0.9835240354253727 1.076369781528383 1.1627536194296213 1.2328655595858509 1.2787659036839578 1.2954782285525814 1.2816640300782134 1.239774235118451 1.1756494310156373 1.09762375228448 1.0152641780939669 0.937935266194399 0.8734092769241442 
0.8213090680433484 0.8986863660765558 0.9876810657984212 1.079508321091112 1.1646641270677982 1.23417848647266 1.2808105324464782 1.3000137158511573 1.2905281077354673 1.2545081321239198 1.1971608876042672 1.1259431042069137 1.0494327178737568 0.9760432359608352 0.9127766802608797 
0.8177077448740365 0.8954633159250668 0.9831756286449204 1.0728458471100843 1.1559265881631178 1.2244041597271398 1.2718231669388502 1.2941097475375911 1.290073754933033 1.2615127119088094 1.2128960814898102 1.150669723702447 1.0822783058193246 1.0150488071121986 0.955103386515221 
0.8089307695543657 0.8860232403506528 0.971499247025281 1.0581398663533048 1.1383686600269418 1.2051622416877357 1.2528996008006144 1.2780357218736746 1.2795046430818808 1.2587909472501293 1.2196530624086597 1.1675310318684473 1.1087186646256693 1.0494179209816683 0.9948155451705998 
0.7962750249879615 0.8719108801971747 0.9544285781432923 1.0372907106884002 1.1138282024999682 1.177991509611814 1.2250286960834686 1.2520049911217361 1.2580948628307014 1.244603867640874 1.2147112249592862 1.1729615083318592 1.1245702094859777 1.07463784728732 1.027385640014502 
0.7812323695407508 0.8547357520481764 0.933634235818748 1.0119322679081435 1.083773529682893 1.1440511476939745 1.1889221982170186 1.2161692846937306 1.225366987113694 1.2178311413694658 1.196353051304997 1.1647469228028657 1.1272642520627798 1.0879501595667698 1.0500300902158513 

0.6853739495295701 0.6668502031643977 0.6634386082662246 0.6745552849566575 0.6979304137006251 0.7298806403905588 0.7657994895979774 0.8007916491160976 0.8303510117819731 0.8509733386818483 0.8606042906556683 0.8588509730743965 0.8469254994642429 0.8273354335679929 0.8033801286685276 
0.6723364043519536 0.657062842239771 0.6563512286620575 0.669742276023653 0.6951156944100207 0.7289651186430253 0.7668859511720674 0.8041987538061521 0.8366067045296003 0.8607791390258134 0.8747657292451682 0.8781754103084363 0.8720956408947689 0.8587736229362745 0.8411234213400077 
0.6602244559599185 0.6481523925800955 0.650189772724099 0.6659349755841303 0.6933591212246183 0.7290883208528923 0.7688910386859342 0.808290503746357 0.8432002271352586 0.8704767932944922 0.8882990649724262 0.8963142172575875 0.895533045073101 0.8880021933559417 0.87632109034136 
0.6506487844229124 0.6420825585351263 0.647483195008871 0.6663217652700447 0.6964652603311459 0.7344897310992176 0.7761886028690088 0.8171912856148591 0.8535881206599338 0.8824570606783165 0.9022055238954858 0.91267444735651 0.9149946758999433 0.9112306488107175 0.9038846759409178 
0.6445341385663764 0.6402138607365532 0.650149629322359 0.6734015519918072 0.7074291671283243 0.7484739671269341 0.7921245676837118 0.8339706452169596 0.8702363392059428 0.8982876077487033 0.9169305381557133 0.9264549635066025 0.9284233008978652 0.9252501200947822 0.9196552865418772 
0.6422657243501537 0.643326661339569 0.659368469330946 0.6887044244338084 0.7280330889644729 0.7729356594474325 0.818539805314318 0.86024201919536 0.8943698203285587 0.9186749328710188 0.9325773828846047 0.9371234871208775 0.9346704963954643 0.928358437443707 0.9214669326847238 
0.643829201238263 0.651645530766981 0.6754913340551466 0.7126086788050144 0.7586040462413328 0.8081026226235412 0.8555483481021451 0.8960230218383095 0.925952969083714 0.9435891049961829 0.9491831624022795 0.9448333949397274 0.9340287292632653 0.9209715639057814 0.9097972417834141 
0.6489155335719387 0.6648615623476459 0.6980114336957085 0.7442901648146801 0.7979750667111453 0.8525355503433402 0.9015931695549433 0.9398536651772684 0.9638647791945064 0.9724796235398262 0.9669516746356397 0.9506467360028563 0.9284197838396722 0.9057600068888738 0.8878460889331887 
0.6569882478825658 0.6821682083255899 0.7256161461586382 0.7818283299957884 0.8436648370906709 0.9033820218948316 0.9537558860281512 0.9891265297889251 1.0062030535188053 1.0045032990722904 0.9863587079655307 0.9564827399015056 0.9211708663193721 0.8872597205485636 0.8610125249495664 
0.6673297159898798 0.7023340576470881 0.7563403438415205 0.8224703762538161 0.8922547347881301 0.9568398530357284 1.0082550736677856 1.0405513732123 1.0506394453116505 1.0386980996309179 1.008088413772405 0.9647850569598777 0.9164117842634573 0.8710310791496166 0.835877824354643 
0.679089973402041 0.7238301059115332 0.7878187425963231 0.863024393582752 0.9399049674236549 1.0087473209609683 1.0610374294349079 1.0906603554383372 1.094750779959512 1.074064477271921 1.0328119253237262 0.9779767532541414 0.9182213476749207 0.8625469561112431 0.8189152896720319 
0.6913560810664737 0.7450120474636227 0.8176096230904949 0.9003217036022806 0.9829213883126133 1.0551935413744382 1.1083525614685374 1.1362610819856953 1.1362694944138445 1.1095493004587933 1.060867160303781 0.9978303355226966 0.9297152207928701 0.8660559739719811 0.8152091008997877 
0.703246097093804 0.7643365288709182 0.84353811891539 0.9316670525377947 1.0182699694214037 1.0930378174330015 1.1472092189177916 1.1747625790182523 1.173222409794283 1.143958512400339 1.0919297260846665 1.0249064248859105 0.9522853480226242 0.8836741463825893 0.8274606446532381 
0.7140156709329771 0.7805723402981459 0.8639935922765153 0.9551906181567145 1.0439427723415262 1.120245168360221 1.1756381508396956 1.2043310057121528 1.203956953624608 1.1758461800832318 1.1247720580018576 1.0582031919114656 0.9851688671370549 0.9149061139617009 0.8554927883195247 
0.7231534885808658 0.7929601883347622 0.878118481365435 0.9700319210990012 1.0591085704795251 1.1359845296619233 1.1927301555126393 1.2238716890766161 1.2270818145893094 1.2034358577883748 1.1571907145924567 1.0951129448769992 1.0254505460418892 0.9566990436079426 0.8963472686297568 
0.7304386471362198 0.8012814777094949 0.8858466224422762 0.9763208279766213 1.0640281136875802 1.1404889630826762 1.1984688382060154 1.2328742278854996 1.2413697802485588 1.2246245557770155 1.186145376908379 1.1317141704128404 1.0685056143319311 1.0040120319123247 0.9449357377531652 
0.7359396542340606 0.805816295756506 0.8877831337302662 0.974967309598962 1.0597681272567026 1.1347320115607986 1.1934250023401929 1.2311893585566631 1.2456801121647958 1.2371021749175362 1.2081068185368893 1.1633535285717884 1.1087928634261872 1.0507703747049866 0.9950832726865702 
0.7399489754415103 0.8071981907119777 0.8849567614206324 0.9673178697195519 1.0477961924265777 1.1200177154911422 1.1784119279484253 1.218822195514499 1.2389537485443238 1.2385939161214017 1.2195655866806083 1.1854099184018683 1.140833622254493 1.0909937883290723 1.0407227484051629 
0.742864418741459 0.8062005172539756 0.8785084390932999 0.9547700890249459 1.029567764769736 1.0976020441785885 1.1542090094472095 1.1958212674190731 1.2203165713157853 1.2272046150090898 1.2176178202698558 1.1940951576667915 1.1601768595633648 1.1198582017566707 1.0769771095565144 
0.7450439501486685 0.8035081981734902 0.8693972100480473 0.9384477352722709 1.006217936006452 1.0684538777585244 1.121441493742842 1.162315830515254 1.1892963373567556 1.2018170372278738 1.2005258984546474 1.1871398647753533 1.1641604020762033 1.1344768146666069 1.1009070796829472 

0.579949731222915 0.5550260924429647 0.5471546863099731 0.5558228782924076 0.5788658010526005 0.6127305604589667 0.6529329837839956 0.6946407233788282 0.7332950166778802 0.7651763098673686 0.7878277937097747 0.8002744217730081 0.8030093187141147 0.7977587897248367 0.7870745710827483 
0.579978167335399 0.5568446570252462 0.5498508135456187 0.558690040797648 0.5814596540492855 0.6149134538944061 0.6548992447919929 0.6969150176293156 0.7366976071373307 0.7707522595771681 0.7967418597795527 0.813678947188912 0.8218979348869995 0.8228231291524049 0.8185834302492491 
0.5807847306328261 0.559455931175714 0.5534341660331392 0.5625732179044486 0.5851940831999206 0.6183263109537557 0.6581253497041187 0.7004005340523559 0.7411700645962247 0.7771554113324805 0.8061388518387528 0.8271324623615939 0.8403404974461106 0.8469337150942088 0.8486871976814452 
0.5826690724188597 0.5635797338708118 0.5592980432440694 0.5696707031940885 0.5930589334958355 0.6265884567523747 0.6665661681707234 0.7089972209558119 0.7501198148051667 0.7868727962014744 0.8172238015303205 0.8403109589201518 0.8563846423796236 0.8665714200788764 0.8725136623337143 
0.585465781724297 0.5695508911773348 0.5684365638147219 0.5816905407861291 0.6074140048418853 0.6425361369814414 0.6832654280148489 0.7256264951172441 0.765997042715605 0.801560064264684 0.830601543064725 0.8526112619010923 0.8681791080852856 0.8787152712725268 0.886053464676696 
0.5888244384815512 0.5774736044430918 0.5814404207486636 0.5996821865644718 0.629680031789417 0.6678223158944021 0.7099332535977865 0.7518653059054268 0.7900628754328208 0.8220092623829954 0.8464882655581379 0.8636231658011788 0.8746938190342849 0.881770615846505 0.8872353894787115 
0.5924400816461107 0.58733018349368 0.5984823702527565 0.6239153847676673 0.6601438769185847 0.7026930894293372 0.7467445165510761 0.7878158936093709 0.8223718868086152 0.8482716567006533 0.8649849556984848 0.8735457201408556 0.8762551755900154 0.876188042860023 0.8765883185448972 
0.5961905924227856 0.5990264930004457 0.6192989431976871 0.6538309981574061 0.6979116533213107 0.7459720943829614 0.7923753627658557 0.8322042733297699 0.8619302085645713 0.8798617161623465 0.8863047210149255 0.8834108155964601 0.8747395120824303 0.8646064470979111 0.8573245290758256 
0.6001727445210309 0.6123857490506431 0.6431913432830778 0.6880883609243201 0.7410264338819681 0.7952537255032969 0.8442576986697738 0.882664538785112 0.9069657569802348 0.9159636995415561 0.9108684023091168 0.8950306586280917 0.8733523150510635 0.8514657017820797 0.8348112873656203 
0.6046578506267629 0.6271212680296968 0.669072790675859 0.7247221531469857 0.7867420299403488 0.8472725791303786 0.8989975236263572 0.9361405761968389 0.955238716196087 0.9555783325588096 0.9392280350795346 0.9106613495099353 0.8760246658387273 0.8421609336274387 0.8155386278308495 
0.6100041938947693 0.6428226101106819 0.6955798746183313 0.7614002249232984 0.8319150963840516 0.8983858338008877 0.952878020329527 0.9893247282128499 1.0043273937058648 0.9975771634151689 0.9718324436466079 0.9324527867874187 0.8865556831717675 0.8419209561369063 0.8058077589918866 
0.6165648324171434 0.6589789539975374 0.7212452020087605 0.7957478556979859 0.8734513329152147 0.9450837495963622 1.0023568296172929 1.039055429292977 1.0518432082255273 1.0406671596583301 1.0086987050220566 0.9618155079391691 0.9076964085277265 0.8546613601787532 0.8104292064443307 
0.6246186505374663 0.6750439030621821 0.7447051277983187 0.8256818238623085 0.9087255423289525 0.9844370539524324 1.0444718936538733 1.0826119791934343 1.0955538136285976 1.0832988102738095 1.0490847926811844 0.9988627647395056 0.9403902784824242 0.8820717750176627 0.8317173865993984 
0.634335586467048 0.6905252459591662 0.7648983734481598 0.84968749754134 0.9358960282906409 1.0144021745262446 1.077091944854542 1.1178715999690665 1.1334198232282273 1.123570459512143 1.0912650598780291 1.0420746385970787 0.98335350029204 0.9231449502360264 0.8689996669743235 
0.6457705477156636 0.705069241211645 0.7812060270453858 0.866979143413861 0.9540536994133909 1.0339355200967506 1.0989830130691924 1.1433270089612773 1.1635733529513228 1.1591862808146884 1.1324906944708868 1.088283744013959 1.0331034237129675 0.9742553861234902 0.9187398541046171 
0.6588700691133721 0.7185067798889929 0.7934938701478819 0.8775080429988394 0.9631824993650409 1.042910987697201 1.1097045900930373 1.1579956633722146 1.1842816371595988 1.1875152761403278 1.1691775019783504 1.1330110860125395 1.0844429133383038 1.0297715289226468 0.9752369502879552 
0.6734739124629682 0.7308390944795743 0.8020421203662919 0.881819574031987 0.9639524874890062 1.0418811655163127 1.1093891145189287 1.161277582593904 1.1939434647144611 1.2057769880045752 1.1973133260750446 1.1711031910228011 1.1313078303229265 1.0830676255576743 1.0317331087848083 
0.689299997553568 0.7421600577169928 0.8073788285122392 0.8807996457545318 0.9574087583203982 1.0317607874033445 1.0984863147172752 1.1528307973206244 1.1911587808409245 1.2113510905793783 1.2130286325529145 1.1975557000111885 1.1678065212306006 1.1277167047445316 1.0816796485451037 
0.7059121864053817 0.7525341437616865 0.8100620618863933 0.8753816243298623 0.9446467393516603 1.0135302332384653 1.0775615883835745 1.132527768483687 1.1748929691279324 1.2021781844929107 1.213236559611687 1.2083685265962893 1.1892418963031801 1.1586135516641685 1.1198856588480228 
0.722682193650161 0.761866622996599 0.810473668398619 0.8662976795094223 0.9265686090928122 0.9880506299386969 1.0472212245978936 1.1005320379645531 1.144729704397995 1.1771932064847914 1.1962300276215414 1.2012709968832085 1.192915314336525 1.17280161908737 1.1433138276796666 

0.49674743309278935 0.4652926706531949 0.45256214609670475 0.4580869736906893 0.47980466586096193 0.5143224873113992 0.5573402673715006 0.6041744151061587 0.6503094348656926 0.6918993564248885 0.7261500126233801 0.7515327600741314 0.7678078571203538 0.7758666790641576 0.777431003753624 
0.5059152474572846 0.47459697718454336 0.4607749083098712 0.46429404426984455 0.4834989654450209 0.5154639146742267 0.5563720305322296 0.6019899778668361 0.6481699189120379 0.6913073604076166 0.7286916383678451 0.7587043858297322 0.7808471580535534 0.7956080272338685 0.8042034040256113 
0.5157132872655673 0.4845661650397181 0.46973794554874837 0.47137099812544414 0.48820454307815464 0.5177667693290315 0.5567062965420102 0.6012152023326368 0.647482265216327 0.6921114618722953 0.7324478618760631 0.7667697533672533 0.7943292449238745 0.8152496039940821 0.8303115616412498 
0.5254362859206321 0.4949808005398882 0.48000692213151225 0.4808122159635207 0.49636541997039296 0.5244763017610627 0.5620968871902413 0.6057106925217381 0.6517535226731959 0.6970054877868811 0.738899976336948 0.775710459066758 0.8065975770917526 0.8315231594059035 0.8510602483108894 
0.5341166548475065 0.5054384206296373 0.49193773795423273 0.49381434616383413 0.5099747538151584 0.5382129605185874 0.5755164103865621 0.6184541358285727 0.6635915644872574 0.707872817689701 0.748917407828496 0.7851931924849732 0.8160487705604883 0.8416124830857741 0.8625875089650756 
0.5409048072028114 0.5156070153216007 0.5057753439089983 0.511190309667167 0.5303336211450272 0.5606229567877928 0.5987666784641147 0.641190253485038 0.6844746761101786 0.7257448911459248 0.7629539453764408 0.7950253797284171 0.8218395942769691 0.8440756631956395 0.8629438425135779 
0.5453610512668982 0.5253899813162412 0.5216866155019825 0.5332839760456426 0.5578789316794855 0.592164267187966 0.6322748743030793 0.6742891314476596 0.7147166962853714 0.7509043145983907 0.7813024588298999 0.8055563781731286 0.8244124155521669 0.8394598368731206 0.8527549351373958 
0.5476049981751469 0.5349746201843544 0.5397345108628299 0.5599025862681204 0.5921084871900265 0.6320557961779719 0.6750910175717689 0.7168055661919672 0.7535894215899414 0.7830592831536757 0.8043002733611114 0.8178866909777602 0.825680299925463 0.8304390356340087 0.8352991260391598 
0.5483115515328348 0.5447748617439768 0.5598175181283683 0.5902945190755948 0.631624558220834 0.6783963648995995 0.7250727918043424 0.7667024479018487 0.799543660051857 0.821514072766417 0.8324011309211189 0.8338016295624464 0.8287979646305955 0.8214187023660087 0.8159650905500905 
0.5485802475089323 0.5553074905720886 0.5816129148230338 0.6231986488879148 0.6743018076960711 0.7284353318536454 0.7792169672785116 0.8211811372628058 0.8504657955357187 0.8652788912762135 0.8660763556908421 0.8554225679564336 0.8375498402962867 0.81767876296827 0.8011989401683028 
0.5497285043073034 0.5670529706936697 0.6045606400633987 0.6569774994830918 0.7175628696174092 0.7789515654512406 0.8340761083322848 0.8770530196777641 0.9039160109952301 0.9130941164665582 0.9055638789882011 0.8846482859042865 0.8554854860294161 0.8242399223640112 0.7971693518050361 
0.5530658396176361 0.5803460666023611 0.6279083453484032 0.6898236422585223 0.7587206668050109 0.8266773552691326 0.8861884675177351 0.9310891613736789 0.9573130794188665 0.9633791839218551 0.950533864115708 0.9225204167270691 0.8850009100698768 0.844707826862804 0.8084461999618388 
0.5596971493261821 0.5953223633838909 0.6508139836431521 0.7200048405034133 0.7953278296698968 0.8686942103961773 0.9324506132440494 0.9802981528341717 1.008053569221869 1.0141456873149668 0.9997708114175867 0.9686751248707439 0.9265850430191466 0.8803599063313123 0.8369865904866173 
0.5703843713352102 0.6119224885361884 0.6724790997590936 0.7460968528525945 0.8254671916138351 0.902732485619242 0.9703773185522963 1.022103469182217 1.0535753446189626 1.062930719516447 1.05097670123001 1.0210309773893416 0.9784186276412096 0.929687608207993 0.8816526184930665 
0.5854745421746997 0.6299349829994855 0.6922721612672075 0.7671502404067674 0.8479272895743094 0.9273273894292943 0.9982198173708319 1.0544174111118045 1.0913922462952645 1.1068070169367776 1.100777417791245 1.0758138469348393 1.0364360315243855 0.9885049748546223 0.9383643132821166 
0.6048849114605265 0.6490479206729761 0.7098018261000761 0.7827513664335153 0.8622325006121756 0.9418169621107139 1.0149469570345078 1.0756341800005211 1.1191359490409463 1.1425119108385098 1.1449714590815376 1.1279458522112038 1.0948576306466293 1.0506075843183584 1.0008480101998865 
0.6281264611566183 0.6688811682628623 0.7249150646340645 0.7929651250624026 0.8685333098710972 0.9462058363447201 1.0201267647556675 1.0845844864253373 1.134640645372854 1.16671140223746 1.1790064372170868 1.1717446108358294 1.1470960377432742 1.1088439778631964 1.0618088072403236 
0.6543467499463043 0.688983862313299 0.7376197600608715 0.7981802441434874 0.8673988571169006 0.9409522561622713 1.0137701484811363 1.0805031700400902 1.1360961268495906 1.1763846145233519 1.198617436687711 1.201810186568045 1.1868578559302185 1.1563732572001002 1.1142665441219268 
0.6823794979691623 0.7088000713486161 0.7479577712377526 0.7989073062708304 0.8595807454058924 0.9267552283140312 0.9962065950136592 1.0630560901899009 1.1222761502971985 1.1692835966162982 1.2005229227326528 1.213935177916737 1.2092219324661255 1.1878472773430633 1.1527678370116625 
0.7107980577462304 0.7276230081874003 0.7558737891152598 0.7955955816893902 0.8458254660017434 0.9044170789845088 0.9680499091465301 1.0324524402999926 1.0928243837216396 1.1443994365405379 1.1830559675141346 1.2058665914465014 1.2114830789227318 1.200280251040553 1.1742265941356558 

0.441591824497542 0.40417442911793333 0.3867247528212534 0.38878493509555 0.40838325389044516 0.4423024534424159 0.4864696603293931 0.5364173401174243 0.587756357352499 0.6366023569636347 0.67990539727346 0.7156486776865486 0.7429027864114166 0.7617438337459629 0.7730635792296289 
0.4556807054464076 0.4166976711609046 0.39620410023307207 0.3941836165295026 0.4092389440805173 0.43879930842535186 0.47943650090810686 0.5272492800048976 0.5782678805297666 0.6288294325754031 0.6758812830682983 0.7171816193787425 0.7513834209102839 0.7780058740787964 0.7973139538320476 
0.470162751863081 0.4296113247565382 0.40608633097604563 0.4000320825671183 0.4106446788279208 0.43600828002582404 0.4733298166389532 0.5192439236937658 0.570151583737087 0.622552740077639 0.6733356474857968 0.7199936458628485 0.7607521076267388 0.7946024937172429 0.8212543104459346 
0.483665386505165 0.44208217461418964 0.4163963659492328 0.40740310593307905 0.4147508359926342 0.43701768943734753 0.4718804778369615 0.5163588028524916 0.567107398800613 0.6207238327100956 0.6740373449305396 0.7243482986829864 0.7695959008562735 0.808443181948869 0.8402806845895282 
0.4947324776681007 0.4532759628972315 0.42714482996597547 0.41725773163350754 0.42343779206797383 0.4444593452650065 0.4781860025616854 0.5217891451593765 0.5720250156498766 0.6255400758616488 0.6791699503861953 0.7301981193409063 0.7765466283308419 0.816881494243423 0.8506283863267343 
0.5022692196607915 0.46267641772629087 0.43847901942007905 0.4304137406553844 0.4381178553279037 0.4601885194342048 0.49433572638289314 0.5376186240198504 0.5867425496596911 0.6383839688317935 0.6895047630916683 0.7376174839821297 0.7809696464538255 0.8186270039132671 0.8504510425105586 
0.50586555747665 0.47027817104458725 0.4507367044915076 0.44747157058275133 0.45956330439889026 0.4850589271901421 0.5211861594440625 0.5646496098312975 0.6119796016895777 0.6598936879675116 0.7056257203089754 0.7471792538866852 0.7834714247917581 0.8143490661697298 0.8404782209227618 
0.5059378569087529 0.4766193717227865 0.464394417466409 0.468710482328286 0.4877859312703088 0.5188196122517265 0.5583029028985007 0.6024076258976502 0.6474091828349692 0.6900944005230584 0.7281007193519814 0.7601391035526971 0.786067411916391 0.8068021472818776 0.8240811707609992 
0.5036781809509789 0.4826664887858411 0.47993787868920806 0.4939880836206799 0.5219965853856958 0.5601486192213593 0.6040637921557372 0.6492912565418802 0.6918170139901164 0.7285205873793664 0.7575188553128667 0.778345699856676 0.7919367153562 0.8004159381419393 0.8067120427082102 
0.500844932096008 0.4896003384133893 0.49770544391577065 0.5226838941354423 0.5606662208692132 0.6068211282109309 0.6558974744030239 0.7028235516257864 0.7432955354812651 0.7742801693102387 0.7943608234572909 0.8038721791539727 0.804795762790879 0.8004228710253822 0.7948276745731461 
0.49945791941015644 0.49857029286955296 0.5177600212639886 0.5537196288250238 0.601692833662893 0.6559891401400566 0.7106145332305617 0.759954612797353 0.7994307724836126 0.8260438641337605 0.8387263580210352 0.8384443313672545 0.8280230279622972 0.8117098937389061 0.7945305052544885 
0.5014706190506026 0.510480696140951 0.5398311209448937 0.5856678679240398 0.6426554148470558 0.7045298877813084 0.7647771150459269 0.8173670613682998 0.8574581637290054 0.8819778405126691 0.8899924916627127 0.8828027961399921 0.8637361436491372 0.8376526943693349 0.8102276135169443 
0.5084837202084735 0.5258536119205457 0.5633425476125288 0.6169338418704186 0.6811135262700686 0.7494062583525579 0.8150503688871974 0.8717453434095758 0.9143832325018932 0.9396648441476227 0.9465064235053523 0.9361645008863513 0.9120439137018119 0.8792015054855039 0.8436078462588096 
0.5215426438773885 0.5447833633740192 0.5875121256112893 0.645971353147127 0.7148969118426699 0.7879795978113149 0.8584865709321247 0.9199846460600197 0.9670799397367207 0.9960718711417068 1.0054193255084263 0.9959354088941647 0.9706634075579639 0.934435228477665 0.8931665660854022 
0.5410354523399173 0.5669705217671067 0.6114874357561598 0.6714815972852013 0.7423293698412847 0.8182259740632414 0.8927103384461362 0.9593332340183542 1.0123904920822695 1.0476185937762463 1.0627421648066377 1.0577756329282741 1.0350141609603019 0.9986973006794649 0.9543843538548316 
0.5666840161969378 0.5918041487192282 0.634472742682172 0.692547362481147 0.7623465593127163 0.8388302491369029 0.915998010170988 0.9874801172613539 1.04725360652494 1.0903817317425282 1.1136580802780203 1.1160415575600848 1.0987962682851538 1.0652970850489893 1.0205192687579103 
0.5976057961010764 0.6184555415925753 0.655809231575231 0.7086741020925197 0.7744951716719541 0.8491630618300892 0.9272707068178816 1.0026143090318747 1.0688834154017752 1.1204412582675194 1.1530693031124408 1.1645460557192449 1.154951820479675 1.1266352752432809 1.0838366549385907 
0.6324181912657537 0.6459542360650331 0.6749902927331722 0.7197379555258194 0.778833374647505 0.8491759551516304 0.9260418869433503 1.0034886234082383 1.0750090495351317 1.134341286761393 1.1763030512471881 1.1975065444160053 1.1968246710719468 1.1755200521119256 1.1370076014634307 
0.6693610043283748 0.6732333740814477 0.6916188723905022 0.7258699465080936 0.7757799188873779 0.839270471808547 0.912369770496927 0.9895170365210786 1.064167107080996 1.1296083773684127 1.179861825314672 1.2105072772875252 1.219290768883425 1.2064030874653584 1.174377892748062 
0.7064218614933959 0.6991502917253245 0.7053362655859684 0.7273259019905216 0.7659729362782258 0.8202010738416633 0.8868586278673405 0.9609192861501694 1.0360183187897398 1.1052484260891777 1.162086791335435 1.2012956034271034 1.2196387552980474 1.2162881767808171 1.1928488416454508 

0.4184772940164404 0.3762848868877411 0.3547804180999603 0.35348213294759656 0.37048672317775244 0.40274700653604356 0.4464320799916487 0.49732653731097975 0.551224288331189 0.6042770307986524 0.6532666433816571 0.6957831892303864 0.7303039276137643 0.7561816847108015 0.7735612741000512 
0.4336126226227002 0.3882621939051826 0.3619429150095621 0.35475274145603364 0.36554074109016566 0.3920922151634877 0.43138106327564496 0.4798626030315745 0.5337786895565625 0.58944853115567 0.6435227707852048 0.6931845867311766 0.7362888907449484 0.7714381484665123 0.7979998889203097 
0.4487312020019024 0.4001180289928391 0.3688573100322764 0.3556864063890256 0.36026083941716236 0.38123103284973137 0.4163761339934625 0.46278702254407555 0.5170875455534069 0.5756800225885169 0.6349987013987731 0.6917536596602424 0.743148032441741 0.7870535178628848 0.8221326807500045 
0.4621223241663377 0.4107115201445628 0.37529398898297206 0.35717473294484137 0.3567037338911885 0.37325101672190286 0.40523572343705505 0.45021896757499136 0.5050642446924143 0.5661607217066577 0.629695410859301 0.6919518770973836 0.7496073967599378 0.7999985489370918 0.8413275271359953 