# vtk DataFile Version 3.0
vtk output
ASCII
DATASET STRUCTURED_POINTS
DIMENSIONS 15 20 65
SPACING 1 1 1
ORIGIN 0 0 0
POINT_DATA 19500
SCALARS Image float 1
LOOKUP_TABLE default
1.36646310970806 1.4024818531957828 1.4431740705162244 1.48717070549344 1.532569977522555 1.5770743783616719 1.6181948844759986 1.6534937884020176 1.6808311824041442 1.6985796494084844 1.7057771258224728 1.7021981779760447 1.6883372320695145 1.6653112757945463 1.6347017870817147 
1.318706904695801 1.356101785954558 1.3988288553959531 1.4453683904888632 1.4936926090295777 1.5414201824052847 1.5860307788820744 1.6251097783207138 1.6565879116904965 1.678941108179997 1.6913221752164658 1.693606979549818 1.686351617085465 1.6706712586449748 1.6480634876849778 
1.2729135146488888 1.310826733176114 1.35464022049629 1.4026895788977338 1.4528297843813522 1.5026078625533974 1.5494880681361471 1.5910983604481852 1.6254626279002728 1.6511847160042499 1.6675576412997404 1.6745832164470014 1.6729016661176832 1.6636452279071832 1.6482417314622304 
1.231506062201118 1.2691137627107336 1.31305169079398 1.3615145189149511 1.4122472011629803 1.4627364240813003 1.5104467908887358 1.5530690952585866 1.5887447991050099 1.6162335513857302 1.6349989398738818 1.6452003397292079 1.6475936263088107 1.643358150046832 1.6338792307302992 
1.196116571490014 1.2326941403963487 1.2758601632342774 1.323669974219543 1.3737637094556807 1.4235770888025274 1.4705890471366367 1.5125720501099522 1.5478088137138108 1.57524302136486 1.5945410419624957 1.6060551745087963 1.6106944112264414 1.6097235640953893 1.6045233224551492 
1.1674545870885438 1.2024278605250802 1.2440602164330539 1.29026760757808 1.3385883891339811 1.3864138968107063 1.431248039921364 1.470960143794072 1.5039942913727158 1.5295034496893725 1.547387142398971 1.5582258128132476 1.563121061622832 1.5634660308682342 1.560681806573152 
1.1452835909662555 1.1782595754339478 1.2177816278704112 1.2616255528191385 1.3072290044665995 1.35194219022536 1.393299997549255 1.4292781068513807 1.4584957805352943 1.4803342014974432 1.4949507674069267 1.5031849893913058 1.5063682626448283 1.5060651135369216 1.5037850332069098 
1.1285092121737503 1.1592828478289547 1.196329659507915 1.2372850333461565 1.2794856101049548 1.3202402547445486 1.3571153161610856 1.3881950106266228 1.4122789558515123 1.428986174378605 1.4387474456889802 1.4426839706564616 1.4423875086392215 1.43963275124865 1.4360641434967234 
1.1153688081523754 1.1439057079663337 1.1783244453499369 1.2161216183673287 1.2545320208712027 1.2908197735539306 1.3225772987132833 1.347991203036878 1.3660363208377797 1.3765675053892688 1.3802922918750085 1.3786244475319336 1.3734361883945367 1.3667427290950465 1.3603642652097458 
1.1036986826226935 1.1300971451345645 1.1619226728735677 1.1965380399296262 1.2310759300033345 1.2627498234029355 1.289167194666386 1.308602299270833 1.3201889142038943 1.3240026849989688 1.3210171669039643 1.312935295190226 1.3019163288549764 1.2902344962107972 1.2799170414266645 
1.0912449261108401 1.1156833428988184 1.1450936168355477 1.1767142919914284 1.2075774451219954 1.2348385706648979 1.2561043671156877 1.2697139299157345 1.274932720907846 1.2720288094136123 1.262216114932917 1.2474677123011615 1.230221080104525 1.213013663348606 1.1980986838246666 
1.0759781418857743 1.0986557900753278 1.1259141285105967 1.1548826955913514 1.182497402641622 1.2058482635005925 1.22252191886635 1.2308927348836867 1.2303207595485168 1.2212256447685093 1.20502155509761 1.1839170072030218 1.160602865717029 1.1378685184149102 1.118197962281977 
1.0563720200935118 1.0774518850207104 1.1028445572812005 1.1295919989273275 1.1545423560063321 1.1747139522087808 1.187652405817785 1.1917330127223638 1.1863655262544617 1.1720698308694746 1.1504074559159294 1.12377328051846 1.0950714592189121 1.0673166934840004 1.043213879747368 
1.0316109193928578 1.0511725643742036 1.0749502289973014 1.0999259967235266 1.122873367107477 1.1407354875888047 1.1509963463948654 1.1519955685087768 1.1431427623800832 1.1249991005212174 1.099210642183842 1.0682976640870203 1.0353242599508108 1.0034898419480593 0.9756963233199479 
1.0017015679187016 1.0197102876459112 1.0420406841733336 1.0656484528371162 1.087250706933614 1.103715972485186 1.1124484980341283 1.1117162087293626 1.1008770856558119 1.080470672162419 1.0521584346286663 1.0185166702898012 0.9827058681880204 0.9480580428504528 0.9176359799434786 
0.9674772572310447 0.9837731242844586 1.0047103030741398 1.0272564027671691 1.0480956019433618 1.0640274922791884 1.0723630424861623 1.0712659436856784 1.0599930233094659 1.0389993305903378 1.0098905363358623 0.9752253016360439 0.9381905881610646 0.9021906854700766 0.8704034427907369 
0.9304975394195621 0.9448049084909537 0.9642775460694508 0.9859366938302778 1.006461923605209 1.0225955006258927 1.0315479876390072 1.0313525871401072 1.021120952908936 1.0011649215547709 0.972965473860512 0.9389901209506305 0.9023802025420239 0.86654750696706 0.8347326288579241 
0.8928603212260685 0.9048153738170307 0.9226338203321864 0.9434340008419425 0.9639234539766193 0.9808050902035338 0.9911898405106162 0.9929628789926332 0.9850554043053771 0.9675852996526987 0.9418464709424968 0.910146237257179 0.8755102684459231 0.8412925185980833 0.8107408866379048 
0.8569543850088431 0.8661458339367133 0.8820249313338399 0.9018505522909466 0.9223941544684269 0.9403437164571281 0.9527202432444674 0.9572539644015304 0.9526717493205208 0.9388580328733767 0.9168674467044027 0.8887864231421697 0.8574608276258272 0.8261245538485603 0.7979775351163136 
0.8251871966202352 0.8312036821123034 0.8447964638039104 0.8634066504915174 0.883907944134396 0.9030040154116336 0.9176450974517811 0.925411434581248 0.9248150124656334 0.9154810298483431 0.8981856996802896 0.8747453390113118 0.8477709910424663 0.8203204993286974 0.7954936479645737 

1.2994392275753608 1.3342439256843681 1.3736449278665823 1.4164519773081987 1.460940283388282 1.5049750317348756 1.5462019954260433 1.5822764267878848 1.611096559559901 1.6310079767158716 1.6409506832871448 1.6405308650769879 1.6300121352694745 1.6102342580851898 1.5824785568502868 
1.256270036293056 1.2923990752271828 1.333756095195505 1.3790202704021355 1.4263620508317247 1.4735821439996095 1.5183092852832485 1.558228186360755 1.5913041701173136 1.6159718497548754 1.6312615819377005 1.6368481439951958 1.6330192241760364 1.6205745314315463 1.6006772909121776 
1.2158523176707123 1.2525271159966351 1.294959864867772 1.3417024909936477 1.3908280676112148 1.4400851146056106 1.4871028931418797 1.5296181960867417 1.5656903024385729 1.5938726150157563 1.6133167261747499 1.6237960005872756 1.62564924273922 1.6196582631092333 1.6068838369294767 
1.1803690345515676 1.2168575737296696 1.259485929186115 1.3066792378134306 1.3564184280409015 1.4064106915806018 1.4543027700367612 1.497906566581741 1.5354038701619181 1.5654998958850705 1.5875034801215002 1.6013237790841517 1.6073871624618143 1.606491275726745 1.5996236367596288 
1.151163194655291 1.1868395707697355 1.2288573081592387 1.2755125910801803 1.3246969266753807 1.3740846157680964 1.4213546068837974 1.4644151482626975 1.5015980817124253 1.5317936490561688 1.554505769142387 1.5698204550089119 1.578294272950608 1.5807830775780758 1.5782413664388617 
1.1286388502200024 1.1630266110181022 1.2037625685043558 1.2490098895762327 1.2965708954064312 1.3440922871890013 1.389296242742048 1.4302046009100216 1.465322949483812 1.4937565942869075 1.5152404532811694 1.5300783585205222 1.539001893861066 1.542972299858934 1.5429588230992382 
1.112271434843636 1.145065266551962 1.184024724139265 1.227175128055313 1.2722277723950541 1.316803533921235 1.3586739639164658 1.3959857856816118 1.4274354808920893 1.4523669452520127 1.4707762464696255 1.4832216975556411 1.4906525360716856 1.4941830003154628 1.4948482072811053 
1.1007267155103109 1.1317902065105319 1.1686721684529737 1.2092559292075444 1.251158608972431 1.291973550922243 1.3295222022203106 1.3620799884922348 1.3885426114382087 1.408506606000199 1.4222500181423343 1.4306139840977528 1.4348015154082825 1.4361234197861785 1.435730713060729 
1.0920736429815099 1.1214143149844618 1.156103829977892 1.1938816651427961 1.232267367131529 1.268821988735234 1.3014115451990205 1.3284355838109243 1.3489869099555967 1.3629169761108173 1.3707943992326261 1.3737597134421993 1.3732954389620833 1.370944328504259 1.3680179421129326 
1.0840641386882277 1.1117901762082045 1.1443282894394664 1.1792761188362975 1.214053207481078 1.2461813136016926 1.273560161019804 1.2947002232984959 1.308878059679493 1.316189160529054 1.3174870912780507 1.314214050302437 1.3081443748319246 1.3010764913594453 1.294518022100159 
1.0744441474091664 1.1007097875836709 1.1312466808527368 1.163517895136362 1.1948427666824721 1.2226955911096868 1.2449942523859838 1.2603388664142705 1.268165295645534 1.2687887006826704 1.2633269121025972 1.2535103610017106 1.2414021515848708 1.2290660271427258 1.2182291865612824 
1.061256404826957 1.086204400971034 1.1149433170699075 1.1448151667442983 1.1730422545332497 1.1970433402579723 1.2147355252331353 1.2247804296799463 1.2267387305155264 1.2211081776006214 1.2092355001439605 1.193110123068661 1.1750648517380595 1.1574230740800084 1.1421412926922256 
1.043096909318638 1.0668066535865495 1.093947046511858 1.121759318569823 1.1473762148690887 1.168154293581487 1.1819891706231473 1.1875708232021212 1.1845421294487504 1.1735354580390411 1.1560779604821199 1.134374184212113 1.1109922095137068 1.088494134597847 1.0690611195939281 
1.0192938395043125 1.041742623865376 1.0674305464037386 1.0935249971317464 1.117081519096295 1.135390457238155 1.1463053166125285 1.1485085806834827 1.141677201491941 1.1265220292875395 1.1046916828877418 1.0785496708361522 1.0508514413127186 1.024362887466369 1.0014714039186465 
0.9899886388759622 1.0110313480543276 1.0353235015820343 1.0599915922572771 1.0820314046581685 1.0986667917622528 1.1076904932785565 1.1077415285168755 1.0984803783902137 1.08063546476806 1.0559108978588565 1.0267639833080167 0.9960790520706865 0.9667792357039726 0.9414276121178895 
0.9561125826144887 0.9754822094142692 0.9983276318035222 1.021772187768915 1.0427742402023714 1.0584954391265264 1.0666528851503894 1.065808706416759 1.0555572862213483 1.0365827209949545 1.0105756011158515 0.9800167938167641 0.9478540866041832 0.9171127882991655 0.8904914587085332 
0.9192663522476757 0.9365945693457041 0.9578350440477209 0.9801488902117359 1.0004837326734677 1.0159484246926396 1.0241749386123995 1.0236201751624232 1.0137670313560068 0.9951962667096865 0.969517083541109 0.939162830143396 0.9070764109527603 0.8763253571257444 0.8496968788369771 
0.8815228970068394 0.8963770016221757 0.9157644061752568 0.9369262669955383 0.9568296833642808 0.9725454914504146 0.981617733603846 0.9823770935582059 0.9741568880322753 0.957382072786726 0.93351776858754 0.9048820414500122 0.8743457161048086 0.8449574351369489 0.8195428421296361 
0.8451833247453585 0.8571136339081297 0.8743400571914005 0.8942254956673611 0.9137892839397307 0.9300843788566144 0.9405717157271951 0.9434439381765084 0.9378565630416505 0.9240359941591572 0.9032493245639895 0.877638652621419 0.8499404100905413 0.8231256127992482 0.8000078916999248 
0.812520431190699 0.8211109655893669 0.8358458623665768 0.8542491513978488 0.8734266880698855 0.8904388002051866 0.9026763003691395 0.9081924127852667 0.905948442575689 0.8959416798570282 0.8791988441846597 0.8576355330619747 0.8337994839962977 0.8105307474996438 0.7905830575456264 

1.224146612713541 1.2575599200738412 1.2956687233913446 1.337436079028119 1.381274378349215 1.4251617727598775 1.4668243460804113 1.5039566482910387 1.5344478362728853 1.5565809618184452 1.5691786836929666 1.5716786888061876 1.5641344907871257 1.5471497564709753 1.521764647868312 
1.1862607630126978 1.220682402584099 1.2604004346241733 1.3042812318893109 1.3506655518886777 1.3974952114169237 1.4424984411914599 1.4834063064031766 1.5181681106710694 1.5451347768321413 1.5631855221791229 1.5717834999619749 1.5709585461612403 1.5612274805984456 1.543472348231886 
1.1516380179797348 1.1863592336971864 1.226864944028697 1.2719262865687329 1.319819398118737 1.36846329204961 1.4156087104107127 1.45905000901515 1.4968286589090174 1.5273988959344584 1.5497330389514112 1.5633547517528106 1.5683011019845727 1.5650264078155307 1.5542703748057578 
1.1222211865840528 1.156601154116637 1.1970958343320297 1.2423788862503855 1.2906658940645945 1.3398644624055787 1.3877670320473077 1.4322580374783755 1.471504623563567 1.5041030376563156 1.5291605367499401 1.5463038571461607 1.555618015529864 1.5575311849451046 1.5526704651958472 
1.09909297235134 1.132612570186864 1.1723883865763707 1.2169910410935811 1.2645764319185155 1.3130490844504648 1.3602595485764168 1.4042069135709783 1.4432162330132723 1.476064563815429 1.5020378394673468 1.5209125075242333 1.532868760563003 1.5383540206876134 1.5379239821396231 
1.0824061010057453 1.1147031045705753 1.1531959735316755 1.1963443070195816 1.242242155513161 1.2887956230975997 1.3339256027210489 1.3757660428855605 1.4128280286733106 1.4441049254730318 1.469103185890006 1.487795672992669 1.5005074647966832 1.5077558190046303 1.510074208785853 
1.0714218273205591 1.10230311171768 1.1391242519744416 1.1802247694806791 1.223632272463509 1.2672552112615656 1.3090918187076062 1.3474248474734658 1.380972768891417 1.4089741343704252 1.431192013591828 1.447838248733874 1.4594306205547434 1.4666076528315215 1.4699336337287336 
1.0646519210109888 1.0940816308372523 1.1290247856298046 1.1676923528604752 1.2080394306248738 1.247973883388045 1.285572424372425 1.319272860800074 1.3480134180363499 1.3712971575648756 1.3891705812909847 1.4021189278701152 1.41089429543552 1.4163043099342665 1.4189965767591048 
1.060085896145361 1.0881520365528181 1.1211768664573603 1.157236699108835 1.1942078018006552 1.2299913970778689 1.262737841694621 1.2910377070930412 1.3140507822367882 1.3315521442114542 1.3438863643110204 1.3518349181386018 1.356415788869405 1.358645831613389 1.3593037092087377 
1.0554742289362782 1.0823392222061052 1.1135346947100584 1.1470003128719664 1.180528285065778 1.212004906347644 1.239643745980107 1.2621771300597677 1.2789768874035352 1.290084412454704 1.2961428218068982 1.2982385508140992 1.2976739595737454 1.2957041299708214 1.2932780685428922 
1.0486312196074077 1.0744741939625881 1.1040084464857647 1.1350405799951147 1.1652759260756111 1.1925764510989239 1.2152037566196112 1.2320126993740002 1.2425663854814308 1.2471532481214194 1.2467003724987218 1.2425923331768143 1.2364193326939485 1.2296901135293066 1.223552012624634 
1.037719048074422 1.0626786563227748 1.090743406143381 1.1195970235639625 1.14685869662034 1.170356761705071 1.1883821468685154 1.1998859435700222 1.2045914921155463 1.2030020724499275 1.1962993855631954 1.18614358626786 1.1744004388303018 1.1628329530750507 1.1528016967849277 
1.021477770496304 1.0456040388450836 1.0723619487295126 1.0993295972271895 1.1240451508013911 1.144295311095155 1.1583795920668654 1.1653136339798746 1.1649414287752928 1.15793764987469 1.1456958973385563 1.130114642641197 1.113307726766231 1.097278179412756 1.0836009836857188 
0.9993740341559337 1.0225961862404291 1.0481386613723438 1.0734980576271176 1.0961414780485441 1.1138083516109223 1.1247856356859862 1.1281185267566576 1.123725926280747 1.112401681045681 1.0956976251323542 1.0757007270630048 1.0547319309012733 1.0350063375654994 1.0183013217177046 
0.9716529574643817 0.9937676081273655 1.01808848839256 1.0420609016403612 1.063095702906216 1.078882640349581 1.087676221442182 1.088515223143553 1.0813443829630782 1.0670188620323766 1.0471873180823557 1.0240658941707967 1.000130871802667 0.9777699418291365 0.9589391555382658 
0.9392911928692111 0.9599721718656978 0.9829600465301999 1.005683748909047 1.0255171722748888 1.0401018147754404 1.0476426491329391 1.0471374695495443 1.0385075046855443 1.0226092404052736 1.0011227178584696 0.9763281051747352 0.9507978680464194 0.9270442067930124 0.9071687536230392 
0.9038626500652402 0.9226904902393588 0.9441393549622663 0.9656596901509092 0.9846114607388977 0.9985935310787639 1.0057484430067354 1.0050021652290817 0.9962058701977278 0.980158864871952 0.958507025591986 0.9335275449718442 0.9078263214518887 0.8839867771738775 0.8642164766617982 
0.8673397281385546 0.8838460304043664 0.903481211912866 0.9237561124600283 0.9420425990128156 0.9559068123865249 0.9634212970149839 0.9634151540693198 0.9556286178092751 0.940750256328796 0.9203299449672477 0.8965769926594395 0.8720682168520458 0.8494032888877936 0.830852546277925 
0.8318605535022111 0.8455804408019327 0.8630945639621832 0.8820120688283862 0.8997443090398621 0.9138388267534375 0.9222967995752125 0.9238329591846784 0.9180438687022194 0.905461799138067 0.8874859349822578 0.8661984860045177 0.8440884731556889 0.8237184948907877 0.8073779502376982 
0.7994956054797203 0.8100205779207669 0.8251131557135143 0.8425159858272432 0.8597082495667188 0.8742370244709687 0.8840375303592848 0.8877014831120729 0.884659144645218 0.8752513929689426 0.8606819890978951 0.8428555137621199 0.8241212827604771 0.8069560229639342 0.7936265429537565 

1.1447214606858713 1.1768892535036728 1.2139640894101325 1.2550224417992553 1.2985658343656303 1.3426338260936226 1.3849827283810314 1.4233028008313728 1.455441758761825 1.4796030629569166 1.4944933352949543 1.4994031270270627 1.4942172576123949 1.479362812853016 1.4557124916929105 
1.1124192170755332 1.1450018030142197 1.183061173788833 1.2256234784716402 1.271162331214156 1.3177168345990955 1.363068870742136 1.4049528075901963 1.441266634621213 1.4702547654547704 1.4906389573622225 1.5016837568819899 1.503194699977377 1.4954589870603274 1.4791474253813965 
1.0835954596842856 1.1159466100932676 1.1542216375317351 1.1973968400181523 1.243925537410274 1.2918620963103469 1.3390379600790583 1.3832631415009113 1.4225233896775418 1.4551451551093257 1.4799071155040209 1.4960871208009952 1.5034450926039264 1.502153523429516 1.4926957333197164 
1.0599715519534048 1.0915430706917695 1.1293191324832281 1.1722219555423163 1.2186882880416778 1.2668005264264357 1.3144618548820786 1.3595890668468882 1.4002944633086951 1.4350309171771318 1.4626813399021539 1.4825840814970617 1.4944973660943006 1.4985166030985182 1.4949663496473562 
1.042416334730147 1.0728056695066615 1.1094841359461207 1.1513114269568439 1.1967073792212126 1.2437913564081287 1.2905570718030583 1.3350565957450793 1.3755660806562546 1.4107092914675068 1.4395227576989313 1.4614569177176957 1.4763191326110396 1.4841748332142717 1.4852304222521306 
1.03090091190471 1.0598776496670825 1.0950196978807765 1.1351126160012215 1.1785552362179006 1.2235084987373122 1.2680707169115983 1.3104529754969363 1.3491282572880992 1.3829323680788232 1.4111031000405285 1.433254941641192 1.4492981289362064 1.4593208974282592 1.4634605899808983 
1.0245585614324677 1.0520664839265916 1.0854139696381058 1.1232992017375967 1.1640929222488459 1.2059978482202345 1.2472252925076828 1.286162520773615 1.321505397914076 1.3523363079378594 1.3781363862988045 1.3987323307181057 1.4141895663009043 1.4246733214325045 1.4303054356172993 
1.0218413366265202 1.0479762639748893 1.0794480073248978 1.1148543435997107 1.1525289763247692 1.1907125249898063 1.2277315243972526 1.2621586664842566 1.2929296651906959 1.3193985226101606 1.341322737471323 1.3587816159212789 1.3720424173906514 1.3813986093930617 1.3870102831915307 
1.0207524529234024 1.0457195963527828 1.0753849704665388 1.1082350983977736 1.142557206556837 1.1766225671286832 1.2088689552524468 1.238055034258029 1.263362724293159 1.2844309573887616 1.301314693143945 1.3143750979588047 1.3241184607936498 1.3310107678878342 1.3353002084065517 
1.0191238753372422 1.043181330303483 1.0712161967867764 1.1015969518261683 1.1325558733900816 1.1623852362780127 1.1896243034600404 1.2132093999409417 1.2325636300862821 1.2476110520460568 1.2587112789339967 1.2665229160326001 1.2718160367827203 1.275263107836976 1.2772427635990482 
1.014903054729883 1.0382999608928158 1.0649323093062044 1.0930493559781596 1.1208223017057666 1.1465535084501495 1.168869036609002 1.186866174959246 1.2001928507816126 1.209044892533123 1.2140789105846244 1.2162513949405103 1.2166065620996274 1.2160445979071715 1.2151066518642581 
1.0064123143577448 1.029330816855203 1.0547846078663374 1.0809092333605137 1.1058121677542276 1.1277948486481453 1.1455516465901465 1.1583167606227853 1.1659360725977583 1.1688508113550067 1.1679922366697926 1.164599744369117 1.1599868719556774 1.1552887521887478 1.1512290729712156 
0.9925490205669815 1.0150584158302447 1.0395039599957119 1.0639201323625134 1.0863522855758059 1.105090910819143 1.118877744390042 1.1270539879667179 1.1296276465430037 1.1272474172137406 1.1210833928228259 1.1126283399885972 1.1034455261208618 1.0948981327356129 1.0878996922237865 
0.9729036766584357 0.9949331527759501 1.018450944699029 1.0414100078844504 1.0617997674170447 1.0778916424235434 1.0884527600318328 1.0928974081876985 1.0913530437860475 1.0846285711382109 1.07408579523704 1.061428682124081 1.0484373901855788 1.0366831273839359 1.0272642644454142 
0.9477850904522588 0.9691185989072083 0.9916811275484874 1.0133696602802549 1.0321283581239493 1.0462040075410433 1.0543675335607716 1.056070436627945 1.051512649196276 1.0416095191340453 1.0278590448686433 1.0121243594842366 0.9963588745723436 0.9823106388946636 0.971246899405041 
0.9181549678953373 0.9384484441948698 0.959921519104957 0.980445319626882 0.997933341691711 1.010605155045556 1.0172155901549744 1.0172176492092428 1.0108352190809047 0.9990330204201568 0.983384729799345 0.9658541261380953 0.9485165601600809 0.9332572563052477 0.9214875214026171 
0.8854866942481546 0.9043045918448693 0.9244666463560678 0.9438509664502919 0.9603580662970973 0.9721808673681044 0.9780410843854517 0.9773597384741195 0.9703374037674777 0.9579311227415259 0.9417283599121719 0.9237322048535167 0.9060844551057452 0.8907624869091813 0.8792905830911896 
0.8515728413542137 0.8684382458406047 0.887013386752492 0.9052168981279243 0.9209560471097505 0.93240082261555 0.9382266696092773 0.9377932777687736 0.9312345582329689 0.9194460707510665 0.9039693701464626 0.8867863837277085 0.8700492476159932 0.8557803596368488 0.845582414398096 
0.8183116757067089 0.8327625150277748 0.8494611921636209 0.866399145814436 0.8815111222487406 0.8929509293029334 0.8993392705685022 0.8999509479195404 0.8948161519260546 0.8847213187327677 0.871107848680797 0.8558802918180125 0.8411477299309604 0.8289314362746673 0.8208771818312868 
0.7875038789176944 0.7991471728266991 0.8137075088348937 0.8292784439160774 0.8438429852568606 0.8555484084187103 0.862957528468273 0.8652438550594194 0.8623050598304937 0.8547794124024842 0.8439621062330857 0.8316312315584803 0.8198049839043472 0.8104610224337496 0.8052544733215337 

1.066131735480992 1.0974447995389327 1.1339071517823922 1.1746602004779692 1.2182450332419257 1.2627162819185824 1.3058215895557943 1.345219344378671 1.3787028731930064 1.4044002450971487 1.420924828923627 1.4274615092522818 1.4237851040554852 1.410218872386979 1.3875500003877823 
1.0393015751671992 1.0701682437412248 1.1067258288421988 1.148122216431514 1.1929229899465255 1.2392243663306868 1.2848261989053436 1.3274387849547473 1.3648933580186573 1.395327448784303 1.4173223437063882 1.429979410916435 1.4329332607004739 1.426310470459403 1.410650965490551 
1.0158701318749348 1.0457026768390576 1.0816377595485975 1.122830148111754 1.1678789703056367 1.214940603285148 1.2618951458670749 1.3065412099396023 1.3467906437494577 1.3808365627967065 1.4072742560722151 1.4251639190778107 1.434034950987031 1.4338417254269924 1.4248884264770347 
0.9973715973579096 1.025718021020014 1.0604059519382703 1.1005915980395526 1.1449117350279856 1.1915976358792295 1.2386352092549449 1.2839469854098073 1.3255693058697982 1.3618004017128684 1.391301476921242 1.413142209340482 1.4267924947095176 1.432071846965528 1.4290748457828197 
0.9845205064996608 1.0111052815648183 1.0440690170289644 1.0825586489635768 1.125247666045138 1.1704523131585964 1.2162858507532563 1.260827295666552 1.3022797189681428 1.3390961648266115 1.3700580125419908 1.3942998822363801 1.4112852708303727 1.4207461272346649 1.4226058405244877 
0.9771859004206238 1.0019269935873238 1.0328708796315822 1.0691404304268133 1.1094403044050916 1.1521767359320272 1.1956066078375223 1.237992891489879 1.2777431902429561 1.3135118478532033 1.3442532443667758 1.3692232293830977 1.387935452638335 1.4000878390489708 1.4054800154455087 
0.9744653454989057 0.9974653674318864 1.0262844088388103 1.0600040924338292 1.097351002218959 1.1368213669306781 1.1768258408378562 1.2158319878660562 1.2524827727075096 1.2856738820260767 1.3145803239910827 1.338632190694189 1.357449054231108 1.3707504593574087 1.3782648556260955 
0.9748475441888406 0.9963605575347743 1.0231249437818848 1.0541635132639833 1.0882131110848685 1.1238554158301133 1.1596584809552608 1.194307005885868 1.226701084826244 1.2560085263999405 1.2816639697114232 1.303317617227235 1.3207458183790992 1.3337432827064242 1.3420209416917865 
0.9764408403117149 0.9968198055578691 1.021737975820053 1.0501435324446633 1.080771002474226 1.1122792270284259 1.1433908197343392 1.1730113445420405 1.2003092542973377 1.2247438075888044 1.2460368432838052 1.2640940819565398 1.2788909115044542 1.2903447656176366 1.2981998594496527 
0.9772366540785353 0.9968691878000222 1.0202356615532266 1.0461975591999217 1.0734751511830511 1.1007934512061834 1.1270207955900338 1.1512783850650803 1.1730029500598484 1.1919516853045886 1.208147790245155 1.2217749578177552 1.233038358106663 1.2420164786171548 1.2485313218721599 
0.9753729975690066 0.994614664453651 1.016750811291049 1.0405495580326813 1.0647070460455392 1.0880019130645087 1.1094341881814729 1.128326936972575 1.1443737469724384 1.1576228870786376 1.1683986698623037 1.1771707728016865 1.1843914276991048 1.1903269255940323 1.1949125855626397 
0.9693642820923238 0.9884788247339592 1.009675425659201 1.0316286960730603 1.0530039766559196 1.07262053889795 1.0895919277652357 1.1034216625105242 1.1140381145042104 1.1217608067342546 1.127200532651353 1.1311061276024028 1.134179852643848 1.1368896699311266 1.139309039279071 
0.958269447622848 0.9773841699145813 0.9978539618086176 1.0182667614764576 1.037254361608642 1.053664211147114 1.0667022267244537 1.076024634516509 1.081763187425496 1.0844771107634146 1.0850356715185328 1.084445880856427 1.083648952959094 1.083315300011816 1.0836699357115496 
0.9417801084495306 0.9608622711835693 0.9807088036601359 0.9998345367253043 1.0168391394447038 1.0305870688400267 1.0403537180855935 1.0459155298427008 1.0475687494298755 1.046070963106203 1.0425104093151432 1.0381187984557503 1.034052479547452 1.031172837520157 1.0298587349997126 
0.9202224196433283 0.9390793562559941 0.9582857458790417 0.9763026827106961 0.9917030792494285 1.003359009523571 1.0105918726631833 1.0132628602648388 1.0117885511156914 1.007076253553083 1.0003847540899016 0.993126950858847 0.9866399334290312 0.9819540493538574 0.9795943602269673 
0.8944788760372261 0.9127810807308004 0.931219070630524 0.9482238946834743 0.9623503770538505 0.972470833021572 0.9779297056721651 0.9786363267315263 0.9750806175978013 0.9682665218680201 0.9595690765299293 0.9505318466420541 0.9426304905637382 0.9370341713032525 0.9343984148539749 
0.8658473498921349 0.8831705528860947 0.90062718060716 0.9166443867378962 0.929769940930459 0.9388710713289322 0.9432937827168166 0.9429596123935039 0.9383845095341051 0.9306145233738314 0.9210840507349748 0.9114131225432792 0.9031691775811953 0.8976247157831942 0.895544214625611 
0.8358626890252531 0.8517423905534974 0.8679590122419277 0.8829624058289484 0.895305612250722 0.9038473993763418 0.9079161930993618 0.9074122003485766 0.9028321988929862 0.8952113366280527 0.8859871627497792 0.8768016575680451 0.8692658778476676 0.8647177877926167 0.8640060151102424 
0.8061099743695109 0.8201004162748508 0.834817208756181 0.8487580096707307 0.8604937084455061 0.8688730749271335 0.8731909301452948 0.8732965933941436 0.8696268390092736 0.8631571785169688 0.8552758399564724 0.8475950711469306 0.8417230685519257 0.8390257954578173 0.8404103585435738 
0.7780576041078259 0.7897868990969239 0.8027854820919157 0.8156208224554715 0.8268936405708052 0.8354429519989561 0.8405177708396951 0.8418923459232989 0.8399089475845277 0.8354413719171175 0.8297824232103396 0.8244684894428598 0.8210627565641203 0.8209245623503949 0.824995072872175 

0.9937959875560196 1.0248085021379674 1.0611501049426049 1.1019764645761883 1.1458237831150488 1.1907269933152125 1.2344028771170454 1.2744706040282452 1.3086781516297035 1.3351043263025244 1.3523121872562567 1.3594393045546593 1.356221587432874 1.3429583039970927 1.3204344258373086 
0.9719505379471822 1.0014221046662113 1.0367423775599676 1.0771380829151047 1.1212285310979246 1.1671364267368163 1.2126592745525802 1.255475641763927 1.2933569123168023 1.3243564940212873 1.3469542632386307 1.3601431250119904 1.3634551597453926 1.3569349358468257 1.3410753535164175 
0.9531475488855079 0.9805483635161173 1.0141838531716934 1.0533529681523994 1.0967692147120736 1.142664804373204 1.1889499952208302 1.2334035963374181 1.2738675214374737 1.308419795181326 1.3355060766018947 1.3540183881712027 1.363319645415726 1.3632218988295532 1.3539332072353298 
0.9387789295250865 0.9637580262076139 0.9951822763649915 1.0324169588068277 1.0742748252256749 1.119114596933474 1.1649882097314466 1.2098144073781643 1.2515538604037535 1.2883628140042949 1.3187078683915088 1.3414327233641923 1.3557769768291816 1.3613555930050274 1.3581138496078142 
0.9294714923355432 0.9518896552605502 0.9807593582909132 1.0154999045605706 1.0550222794122117 1.097823224529486 1.1421206670319348 1.18600962795542 1.2276160788362933 1.2652284606500879 1.2973922163575677 1.3229605984776245 1.3411036710345403 1.3512851755103101 1.3532222916631382 