# vtk DataFile Version 3.0
vtk output
ASCII
DATASET STRUCTURED_POINTS
DIMENSIONS 15 20 65
SPACING 1 1 1
ORIGIN 0 0 0
POINT_DATA 19500
SCALARS Image float 1
LOOKUP_TABLE default
0.9524392939712444 0.7417982054508424 1.0364315163512412 1.2576652311627408 0.9931508389642429 0.8218272346069945 1.1061782017023645 0.703183642101684 0.593098646020432 0.824976201704712 0.599112478851119 0.9248641472876651 1.2737520411402738 1.1484965336619601 0.8967802833594244 
0.7374114522682301 0.940752943594509 1.1433053261285178 0.9741190423441511 0.7424704401133156 0.8753395180393392 1.1207686073915193 0.8046462811523385 0.6071654958256272 0.9569028316566354 0.9906739991053451 1.053151201878117 0.8365615243209378 0.9786633771653397 1.0466602803511016 
0.8201508476869025 0.5887059711225229 0.8746210444346415 0.862474996789408 0.7992958950443568 1.0338132955973287 1.1047886613936901 0.8662856513379592 1.1472104521029962 1.1996842602522397 1.4143754368581747 1.1586139256610175 0.8660848949667183 0.8580428495101915 1.0565017656494615 
0.8719282561553252 0.8685437918744584 1.2914426660814233 1.4156845046157636 1.057654702070069 0.9316248008700011 1.0328558200423448 0.9346871337177275 1.066169945064602 1.1794817008717593 1.2982518041226347 1.0664893940034972 0.9354039945430616 0.8280259775197946 0.7854536924212535 
0.8931923831938141 0.9678213767678809 1.0913566846791665 1.033527697906658 0.8997652566365745 0.6294824672251108 0.7137419555246239 0.7631283297255659 0.8202456383515881 1.1559150665438338 1.1923010134712215 1.1793172284117253 1.0150172131212165 0.8464772657638382 0.9121828356109069 
0.7328770677479088 0.7420589236039138 0.7902982776775701 0.6917647748846056 0.9789484873307454 1.0890181683291056 1.144969082122377 0.8321302230858055 0.7857546861508978 0.9996703244260128 0.9385244764966602 0.957497071537796 1.0149341884023864 1.1581801687090367 0.9324856701732129 
0.7997868302584245 0.6490124971765231 0.8040554975726751 1.0364611483058965 1.1440896989007512 1.408078119729292 1.4521209978652996 1.027691567212929 0.8561845255892371 0.9714091511390653 1.127054351659599 0.9254653786165333 0.7844354980976311 0.9863645022936579 1.1314348150604676 
1.1710332952245572 0.8214271049223628 0.9376151696750403 1.1161857904925143 1.1536830619111922 1.1204950273007825 0.9884908364092326 0.8366927715059983 0.7048183925290014 0.944505917055195 1.138947914552535 0.8368935105181073 0.8807785370241008 0.9357709477645993 0.9240404618849514 
1.1338226405173533 1.0553347305891696 0.8321498207762703 0.8017089213580165 0.8046046560932485 0.6380164560549174 0.8954444654548853 0.9349139473212623 0.6636682283069838 0.8109938175000441 1.0303577326955842 0.8579517553862864 0.9024459915677773 0.8712682408620407 1.005225764456244 
1.0185336514534686 1.2917389405142696 1.0497769986560825 0.9759434903302379 0.9022707631847604 0.6427545704830454 0.9508452044178687 0.8474724716579247 0.8441564421149391 0.7962457108366773 1.058860233942514 1.1155998160705232 1.2972147566428078 1.2348897870283992 1.253587525282918 
1.100923832418324 1.321164384646822 1.1548391875969024 1.0719284470714467 0.8920597029448799 0.9850443827065567 0.9396625547764424 0.8843416644664014 1.3320761818254234 1.104210651904319 0.8401198511338523 1.1736925237241933 1.2094604886973217 1.083917345707892 0.9014985992625416 
0.8918955977912251 1.0256665106951792 1.0819553989037864 1.1915739735207147 1.1121329236184847 1.0974581041374214 1.0398790501070234 1.0582063756895679 1.0777238751318903 0.9105807051404743 0.8189490365524256 1.060849630038108 1.2746651206974464 1.2372847853575397 1.3339273061049455 
0.9234604072173965 0.807757841526159 1.0100656604787654 0.9570641360339617 1.1682566834615788 1.3428099748844384 1.1880820078637764 0.9306954424570217 0.7817069148777666 0.6261962452122494 0.6457820493581291 0.9628232185016056 1.5034704559983743 1.3162656836516136 1.0337553019002583 
0.8302882363743082 0.8673218064414746 0.9191528958329438 1.0325329159566832 1.0310641061402661 1.0463352393083367 1.059635414601222 0.9970555311877008 0.6329785258015946 0.7396745611181103 0.7976738980336188 0.7926121784020455 1.0735140125755331 1.2217879507891363 0.97614424108357 
0.6926955359437372 1.07902480779939 1.4132510450335083 1.1300323189212 1.0096865898041312 0.878297835142099 0.9239965691243829 0.9512027919003601 0.9108901282511099 0.9592032707753103 0.9645496885922428 0.6977200641412499 0.7796147302479266 0.9779008778393201 1.0567166304054827 
0.9277644092581302 1.1198898823825707 1.1241549582819146 0.7916651721443035 0.9381420620866576 0.8569527237474494 0.976784265648768 1.0782491781821801 1.2383475231342742 1.0626163880722803 0.8034022128203644 0.7220439951017071 0.7772964275574387 1.0699281339814959 1.21482309830219 
0.8114198527295597 1.1100641633141626 1.1101517233704752 0.7625442215678114 0.8567909888645765 1.1059612985350866 1.1436197412728863 1.1029252815734512 1.1350268226246008 1.0404366878733335 0.7807005959206449 1.0614229257415404 0.8678115546450033 0.7573167332686389 1.1501034755055168 
0.9093851207381016 1.0983356731248843 1.05189252421187 0.9639448155310143 1.1463996782805586 0.8994057394424042 0.8203438553634229 0.9204727542820823 0.977727329287573 1.1426801734565104 0.6579683916453857 0.9888958921878882 1.4536860652694963 1.1705463881577622 1.2148737324957235 
0.8142940916677764 1.467178846809741 1.3282319418202402 0.9339435926894025 1.1103041060984107 0.6863461354943711 0.5919003854186542 0.8982116296071637 1.0293853426072483 1.0523462953870562 0.526540703604694 0.8845202540525571 1.5636180393265886 1.533207176353113 1.3056236378452426 
0.7271339806021496 1.2226630106709173 1.220340354702513 0.934392870479086 0.8185712821585013 0.8341152614936269 0.9841912990050439 0.8626651974927412 1.033272222516148 1.1558065121334762 0.444330708458885 0.8924957954305924 1.3462907906451052 1.0900515879901662 1.3548692201518886 

0.7657921922585543 0.7437024533275921 0.6188077399665833 0.8978851146253535 1.3162611321675985 1.0811282939651046 1.021920547507683 0.9761671365719548 0.5791531852344438 0.7120065839775588 0.9829979999413319 0.919437660804279 1.169825030742301 1.1173378874093718 0.7647642918023115 
0.9917629964176284 1.0158293299313599 0.899607705667982 0.9818558245607355 0.9295328512831984 0.8482936676821907 1.0631858720760374 1.128409726950565 0.7282216526860282 1.0824425458250806 0.9490106986637954 1.0595144225973117 0.7445202894920152 0.7559359453121367 0.743816073282081 
1.1206361516618277 1.0713947365030325 1.095935793909653 0.9868898297014382 0.80974587038037 0.9367876094276044 1.1255609674145433 1.0890947205163934 1.011001852209038 1.2152026321772404 1.4443264326806946 1.094879276044908 0.6999663974018233 0.8800527005284154 0.7734290409227677 
1.0584242245446023 1.1355028132982885 1.2128662857968715 1.2401023058519374 1.0456515144354213 1.0340196117722384 0.9168641115526253 1.0195077487634556 1.2244938277177462 0.9450218314368115 1.3361708446729232 1.1540156928413108 0.869262190058757 1.0238578297048881 1.0753629890758303 
0.926881425654383 0.9875387126331171 0.9184307898996226 1.0906167777408746 1.0624814645294762 1.1650022474316262 1.072438574951385 1.2087085149375905 0.9379344189241029 1.0226580078205285 0.9988667642042863 0.8375785622277548 0.8805094212826446 1.0964187076205762 1.3866944070239926 
1.2404381201199706 1.0052876187661073 0.7423800538042429 0.6065352584532292 1.043045331875221 1.389252395366618 1.2718760944208123 1.0620862331642795 0.9094270968048365 0.7865180969230204 0.5138598091044484 0.6986364163807136 0.9009267398563062 1.0690972189700902 1.108167359438185 
1.1233694154907075 1.0073871941554753 0.8157107044186324 0.7453569046106235 0.9143732353711916 1.175819556514904 1.3006568724176866 0.9630799102700808 0.8899139821164462 0.792960120412033 0.8750890012998832 0.9646339101968592 0.8751988116731415 1.0530690788782335 1.048944245550451 
0.933059322142743 0.9780644030922695 0.9649317517555223 0.8169121657490218 0.6026947387320866 0.7870683919105727 0.7247540343954212 0.7668968099662036 0.9333308725004333 1.1760795025073683 1.3422569634515464 1.30426819357104 1.0979545282637306 1.010028323368065 1.0999028197162501 
0.8636772900351659 1.0989080651002037 0.8519140024053476 0.42019074119484245 0.5224355438476046 0.7386516812447931 0.6511357449169302 0.8649221665368613 0.9960732936505926 1.3185100575690623 1.351938161179 1.1776925115911858 0.8193594898399891 0.8187102935803122 1.0297417469054726 
0.8888276188369384 1.00769298887939 0.8055385433306003 0.627044092837317 0.6081208834938036 0.736093032415064 0.891468617593777 0.6933978616993849 0.9779404149509647 1.1428927457657485 1.3225478443773708 1.1710895910646033 1.1034348523721493 1.1793649495424723 1.358833946789625 
1.3463449950493 1.2176162389994816 0.7687258235670342 1.0383793841174453 0.9208312223618764 0.9641838344745921 1.1052520604280573 0.7758759047127473 1.0774533139131446 1.102712119003967 1.0973464950838805 0.8118761870500886 0.8572781467748112 1.1399703481696224 1.3390049145707477 
1.2424292481065917 1.1598467799651275 0.9091990236896069 1.1085461562276957 1.1497370530118238 1.2915961820030186 1.150095813241554 0.9265583181516622 1.1369715870988464 1.0707067184518322 0.8028790909035469 0.9744904820646728 1.036412854359841 1.1127879508045555 1.2431059981460133 
1.0996740874808881 1.1162812304767402 0.9515691540691223 0.8880828548674623 1.0848089367549854 1.1311204210681534 1.514031113459823 1.0264329341404106 0.8030121491835083 1.007142153528482 1.0173983452176163 0.9031224533234914 1.2314911503482162 1.088585479326023 0.8598191301042394 
0.8937583394577672 1.0817277149602167 0.9481014392089396 0.924852986198042 0.977404938568642 1.2259441863330673 1.4465143812734635 1.1203904776949019 0.9072372019976064 1.0132355756915756 1.1674563990271967 1.0306931460132114 1.2716626948416136 1.3167388777954723 0.98659929244057 
0.9934262275506477 1.2968577118174984 1.257412193436187 1.1573238667421282 0.7413172746265089 0.8849255965896485 1.0450275929660835 1.137808006216678 1.1134138826446383 0.9826193707712059 1.1825915474155195 1.476109519662554 1.3847913974046056 1.1562921380669877 1.3416302209631064 
0.9232922753400217 1.1384706812127132 1.3186010336396112 0.8950828282899362 1.1221291703508496 0.9044736120383199 1.0078274720739802 1.192332315597953 1.1804512035679013 0.9608750076355039 1.2451239106555185 1.1253983138840487 0.8895313273021486 1.115225958997303 1.4145607651638987 
0.772496027143229 1.083899044028686 1.3618798015421185 0.8883048885159666 0.8931778339484748 0.8814276686985897 1.14177934633447 0.9945236380842892 0.9968881795017852 1.0175911716471218 1.1134918504127884 1.1875502580285398 1.0750736705076482 0.8259995282725544 1.054814249337459 
0.830677944521108 0.9098775372611324 0.7169423673296557 0.8165566633563857 0.9261718776030989 0.5446116458873946 0.870134800938771 1.0401540888502945 0.9786794720290599 0.8805611949080119 0.8940436765828148 1.1082447257984782 1.3456948950507557 0.9569148826822208 1.041391821225338 
0.8207871619911221 0.8780456722580703 0.9105611015019556 0.9693348243354438 1.1169163099494734 0.6444239114941072 0.49511567894595143 0.710414532887304 1.1174616633033163 0.8850793093753024 0.6996801236911401 1.0351821656539684 1.3982823988646644 1.28243645886492 1.0468364197293436 
0.5392319657880014 0.6686854690515849 0.9616327114313995 0.9946210336916951 1.0151065292043646 0.9738466498418887 0.8288157349555316 0.8187289727974243 1.2256478577676404 1.0645975279248863 0.6148877186377101 0.8526987876755787 1.3573726144437042 1.3402396091917659 1.1521970297256816 

0.9380959045427487 0.9362057512165248 0.48975661430010786 0.5568418617257351 1.1791407369465134 1.0695417660580369 1.1035010749945586 1.0102169953141145 0.9701438444552171 0.9780874091558341 1.0972007051206338 1.083359107400815 1.25560144721919 1.064306129039387 0.8194048837608311 
1.1415980627197273 0.911112991440779 0.8340461204714386 0.7995505805872966 0.9786616197497631 0.7960295968661162 1.1519354154225199 1.1476431563825944 0.940108163441864 0.9481744321216525 1.0609231890533821 1.0980113716033348 1.0326383442551357 0.9237564271319745 0.7139591312543075 
0.9806078414563135 0.9078774159325658 1.0683357792233328 1.325775385559289 1.0861875410982604 0.8790640525624894 1.2016550861975483 1.294873064062454 0.9562160273419602 0.9301784167215087 1.221020152574941 0.9619157505803733 0.7708457258459249 0.9835864918719813 1.041479228769618 
1.0699504859236442 1.0278665199555164 0.9868893799921284 0.974475692362911 1.1638738222515155 1.1479571432465203 1.0532655062438137 1.3228351470449407 1.0378627183123519 0.6599414010217896 1.2072400403177066 1.1259177232713249 0.7214436080194863 0.9411721909314753 1.3708184739286065 
1.271949974557971 1.0211363958961466 0.9149364691460343 0.9408955765486838 1.2254883263878678 1.2799341892781277 1.2488180717762227 1.4820598963090341 0.9415941575401193 0.7551932133624871 0.9683449326266901 1.1129026710713648 0.9187481291230766 1.0058299259122978 1.2705434483654674 
1.0265573785681732 0.9673733281843895 0.5323079733743771 0.49248243272581993 1.0079621372876733 0.9707600283040712 1.0939206937198054 1.343405729452111 0.8128817858986804 0.7817234798143174 0.9347642417257317 0.8023390731050127 0.9330508194157245 0.9836623574325726 0.9923975028679163 
0.9868586372406105 0.9041989135883505 0.6413676174269447 0.44982572636977347 0.7225109643455776 0.8935989438662221 0.8568077459693254 1.0399683531853197 0.9559159833125218 0.653564016011095 0.810881997976706 0.8875614530712944 0.8587786863055845 1.048519744245933 0.9322324401143056 
0.9437039562709678 1.022082589193261 0.9847360751661943 0.9552650382533294 0.7602845840794356 0.7428460033177201 0.5271686017854618 0.8508181169560824 0.8963702827303438 0.8289125822182704 0.8718254766798931 0.9029986581739735 0.7118532881502783 0.9988201207889152 1.150255689368076 
0.989001324938618 1.066366537514729 1.0856109871911466 0.767709031840068 0.7632789819196623 1.037263869090847 0.5663674620839769 0.6809745612548751 1.0197340131964108 1.2112997865595068 1.1611430085876244 1.1116005958157582 0.6224748283871396 0.7943175191914841 1.2768267118974168 
0.8959958224818344 0.8488527178420878 0.6452463695025541 0.5922178182011825 0.6316829583299751 1.0701558222114864 1.0863169268389603 1.0524252691999039 1.3335199097647483 1.4195101547865563 1.1905388602518792 1.2124879494957148 1.0033262953164277 1.0382212636748496 1.320973999614678 
1.070909203022425 1.0977756946229071 0.5132879794197734 0.47646224318370045 0.6262724329523098 1.0505042786170953 1.2246031543227227 1.2559973505890927 1.2231527989763773 1.0278039747015033 1.162794522802288 0.9217466700042126 0.696891474925851 0.8732985494636252 1.0968104995521157 
1.0424889507512693 1.1966781120143186 0.7956151135281085 0.6839125933462858 0.7831741491508618 1.4132411260067737 1.3900562260361462 1.071656198797827 1.2504965721597334 1.2095668589003354 0.7829968216942472 0.698263832330188 0.6303119390026156 0.5809259156172815 0.6963518185084673 
0.9186598035594641 1.3327319620414375 1.0026046681242584 0.9146473671075596 1.0874226809050254 1.1122900600997414 1.2621398865613283 1.0216987286718011 0.9622352613279023 1.0370766239210474 0.9530169447982633 0.9700800125137361 0.8829029431685353 0.9074096159473836 0.8438345795405229 
1.0169456260835519 1.297700098979031 1.2486443326697811 1.0647923661414467 0.895272756246854 0.882527126468598 1.245001036563342 1.095910709174793 1.0184019875887151 1.1837324404066951 1.3648996874247241 1.236841674252711 0.9751532677361394 0.9296106283494016 0.9492388689316701 
0.9036591211520905 1.1716053160083688 1.0786221166823444 0.9944039420681052 0.5756652604502605 0.8664538857817984 1.0674706725948921 1.2605677112699438 1.0645161483808154 1.0791996970242477 1.2137938210220751 1.1517202617789377 1.0487128045560152 1.1353670543322147 1.0259737794178085 
0.7412706784264185 0.921119143324193 1.2375723342983131 0.9173412021269312 0.637839262461626 1.0262512364910172 1.2562614458719934 1.2426148716634384 1.058697437779649 0.9590501524368944 1.0597047963595112 0.8419686822174401 0.7485788929162515 0.9901326193469101 0.9748654832634052 
1.0301207357912214 1.2120174093385923 1.0947743421161649 0.7523568585463197 0.7512651855061708 0.8609883898709022 1.2038811557235265 1.1472629066574531 1.106400322601445 0.994227923352805 0.9702325273937825 0.873304272281012 1.0781657575835886 0.9089180631823974 0.5453445719297803 
1.0503726306104841 0.8685534777651233 0.36215852928058556 0.8274413770206146 0.6063103607119967 0.4009345676961492 0.9011385486749062 1.0592973621370203 1.172410590719894 0.9249896531357753 0.9226533064986958 1.2451193579549584 1.3682121207122147 0.741958608821119 0.7044100459640597 
0.8666349483139353 0.5283015858482849 0.5302262917995723 0.9519546628393702 0.8367628389294689 0.6853659517071643 0.8528168843545445 0.8718744744256824 0.9411849091903626 0.7618434692210904 0.9105933056554254 1.242781760323612 1.339018887455691 1.0821960719528354 1.1164385768863494 
0.9249893359562952 0.4234702256921514 0.7830103994996572 0.900442099254806 1.0885646575947203 1.2993864017310148 0.9887179759097909 0.9604624663286929 1.1260033258354634 0.7539691895720078 0.9345927056241945 1.1540595600514418 1.3435191605499357 1.3809733708715584 0.9826959889573447 

0.984577980206858 1.1857482807821982 0.734833384108572 0.7895015400456186 1.225206861055364 1.3393795716297237 1.0834682689585293 0.8502933497132859 0.8455268523066674 0.8549316883421544 0.7781711839173242 1.0113562016574824 1.1650159344167523 0.8660650209160988 0.8031677690853724 
0.9275149047645482 0.9169452472696115 0.9729370898713232 0.5797056498503848 0.7841035536347406 1.1520921498055121 1.3746590064304685 0.9469383089550767 0.5484411239082652 0.6058224472259773 0.9424319033980013 0.9619005696203555 1.100220723443551 0.9657998187249904 0.931179453635562 
0.9123055806539372 1.018423388406776 1.000997667843523 0.9774494123321081 0.9742124954031568 0.8906241687637436 1.086260115915351 0.9277774914930442 0.5995563244971313 0.8310984574586413 1.1565276600928236 1.0347127441591326 1.1215636709697088 0.9900737490410326 1.0310733890517831 
0.9649340244519405 0.9374464573749841 0.9443362390709712 0.913790508105791 1.0564856577723436 1.0830874750812258 1.1871509120522883 1.1853522891300066 0.7810011666064129 0.8564397186252717 1.274020960378556 1.1735259951926245 0.856718066852658 0.6672408447636912 1.18113558445599 
0.9920806853991909 0.6962974292238983 0.7334671820356456 0.7477899628860575 1.1670250636126505 1.2360864508706775 1.1848746350211816 1.0819107342469998 0.9128531790423328 0.8620132131575804 1.1012086923388118 1.0624532620925344 1.0095253351586364 0.9773109892185109 1.2245750157884387 
0.5552347037830316 0.47291361522553743 0.3583302190523956 0.589837308556231 1.0754684772623886 0.911346136305642 0.8115294008107132 0.9282311606830005 0.9688736999982369 1.1424099252564628 1.5401955547525161 0.9719070424867478 0.7428544597716958 0.7839017247038699 1.163168032140232 
0.6034315306460322 0.48012622408581396 0.4531664477294507 0.5223900869793172 0.916155841860201 0.8684242592709722 0.8476387873191197 0.9879909966538192 1.0625505779688693 1.1574845433110932 1.3724957013473893 1.0624529476342586 0.807859820613452 0.6228577210289467 0.7996127578546827 
0.9301430663097522 0.5818658626502555 0.8154408314152096 0.9356567006230804 0.9218128787629764 0.7770005332196509 0.7694878724022861 1.1465637430814777 1.222223895306438 0.7939270231857344 0.7201154098818215 0.9169692278389471 0.5646046577376092 0.6906195313584639 0.9004383268667866 
1.081180162865297 0.8054678617325705 0.9819435963053471 0.9091388900713491 0.8397322171198811 1.0155864522446212 1.1108401513612036 1.0806013571395345 1.2183402865736346 1.0183953040088172 0.9908989395114361 1.0373649023763234 0.787252103458534 0.7313178143135314 1.052224141109459 
0.9303419791126116 0.819950147027484 0.7776314136885705 0.6306191163381655 1.0081560532490417 1.0930872348060676 1.002555177004049 1.2743998877992642 1.3175206198342342 1.328565847322536 1.376091876255106 1.2495527782116245 1.0330993184792039 1.0724072228593897 0.9506059953100195 
0.9228802704677047 0.952705822168107 0.8303378204194053 0.5336678641657546 0.7565905909380265 0.8325214511140112 0.8097882896674085 1.1535488470547368 1.1031024269878578 1.2288484992720248 1.2213243425344733 1.0364019022639241 1.0388685495672672 1.0612446831131641 1.047277716070874 
0.8488893265869557 1.2487269293414816 1.285584569959921 0.9120703866864386 0.9742917713882562 1.0863596605020978 1.1620661829040784 1.2528307525969562 0.9364904997000935 0.823036937827727 1.103111246780319 1.0218310481518809 1.0498811937347852 0.8843718759378961 0.9895048813300357 
0.7557553209370361 1.1488102635343673 1.2115527074426424 1.1644471685859568 1.0632245277073644 1.2081501844607256 1.1607018589133613 0.9247390685680347 0.8738353755842091 0.9477147990053535 0.991040530461665 1.2222133772234525 1.082527905061108 1.1056186458300012 1.1217558671258598 
0.6049707239517342 0.931265931516068 1.271438728365668 1.355642013523311 1.1944472067649121 1.071501168085205 1.2323236191318845 1.094976571962071 1.049545515257972 1.2104091869407427 1.1307139659595444 1.0612084751950521 0.8057884991364654 0.9239559490445327 0.8577345661783441 
0.6509226706479229 1.0588432015771085 1.332752245905371 1.1537244473265829 0.952180250391535 1.1479977403493287 1.1426770181290928 1.3488236276195802 1.3635616969833775 1.1674556580443127 1.0562179053681473 0.8796452995935673 0.7245032380690278 0.9374744460787778 0.6806088277413851 
0.9858010340889456 1.1958288747509966 1.0745032459210697 1.0601142167204278 0.823635273171571 1.0988161391485627 1.0848933055585497 1.3530771039369367 1.203841179103779 0.9928267448323372 0.9012581032435687 0.8599748244255555 1.008261863094667 1.0467031993739675 0.8603342535493467 
1.1755549212332164 1.2210757384377842 1.0375774295822984 1.0676465023038362 0.9074124919070339 0.8240865486655414 0.9921806479284904 1.257899143100957 0.9235405559817849 0.6891795846669748 1.0418931610811386 1.182881474835146 1.0461785549464269 1.0155913884824552 0.96746262034414 
1.339527249949933 1.1970106299033851 0.6068227004194102 0.8224906654780343 0.6257109508898663 0.704213057740815 1.1532036732763937 1.265768061953798 1.0469053160825155 0.8367712676922102 1.0039997600319504 1.091777167919198 1.0941419093234388 0.7913679976913327 0.6183815544697766 
1.0478473076595711 0.9744671486190883 0.7852689921215298 1.0577458725377715 0.8695561688916249 1.0184913378002558 1.2786690951705988 1.2236396510140777 0.9647903781151695 0.8769834954084618 1.1097997121079737 1.188307836133942 1.4136960355891453 1.140783617367028 0.6837273581186575 
1.3112172122469659 0.6948886579112866 0.8522951632268645 0.796151103502113 0.8404199732204058 1.203509980834204 0.9455188591848388 0.9656590622500295 1.0301895375513874 1.2031269794172048 1.4203622384758505 1.3049589473231653 1.3588010779977506 1.11437702844719 0.4298781293431887 

0.9966893469615238 1.2575094165575238 1.1783412538550326 1.024089952968652 1.0928718297010276 1.1311156046887372 1.0160008609226596 1.0847057802970952 1.144135499902645 0.9290131758467192 0.6632376910939558 0.6875421340527738 0.7785440800495583 0.8486040752410409 0.9066779136527079 
0.9105556331426948 1.0968992987857171 0.9336163028681175 0.7860409881366733 0.8168319426534861 1.0474788661528551 1.1405569475204071 1.0313924029471568 0.6360566649657852 0.8343701182668046 0.9671624925535807 0.7853904476054347 0.7760221057777065 0.7967309527784071 0.7883507331324875 
1.1006172085414607 1.0364160141746677 0.9610180454889651 0.7590798524254586 0.8071266305437691 0.7427656563797939 0.8901771991021782 0.9880106034197789 0.9484450717500333 1.4269847340818127 1.4898210812757693 1.0775358057443514 0.8704197482624394 0.9027235735323247 0.7830776956562598 
1.2347894184154717 1.058328331020661 1.0030857104396302 0.9647761186208312 0.8643870391360511 0.7807305999456783 1.07717073908596 1.0053847642066667 0.8590786581683536 1.6314209804042195 1.5455362428311372 1.1138409751262093 0.9475696855542124 0.9022452165988425 1.1362797484181084 
1.0382785834095716 0.9650900867043527 0.8984860565642608 0.6954124893777794 0.8184580659579834 1.135972388542125 1.067828218740678 0.8532688480091786 0.7091479324211005 1.050790868968582 1.232661796296206 1.1412257510284203 1.0319167841259134 1.2382123485398697 1.4475080741133781 
0.6680557671330677 0.8690113527106665 0.8483608054642365 1.004124027786092 1.05457208247652 1.247727247965647 1.041720597294716 0.7499705019904165 1.057899738582733 1.127473556641267 0.9156257534968157 1.0121675860066481 0.8650626443583951 1.0380891425671872 1.3019328944168493 
0.5647984167932085 0.8977881725299611 0.9736043454704375 1.0308782790532474 0.9737434315405648 0.7173916754265613 0.9097178719442206 1.1907958068485707 1.3469350517034782 1.1932713062616318 1.2108000259399345 1.223615259301543 0.9332690492032147 0.8019585175319924 0.8844886647463519 
1.0002084550789887 0.7250589308436998 0.9045828296089345 0.8889811530672935 0.7745474674499142 0.9088689093343367 0.9282262752692464 1.1918411469623242 1.297320341765034 1.0403485247512592 1.1219334580121352 1.23744877023362 0.9676363531493574 0.916638090678669 1.0477957123679207 
1.0664996066604304 0.8961377895210006 1.009166281908709 0.943303870035325 0.7733976740593705 1.1490841470161604 1.1992371729076012 1.0274852859640913 0.802503285959285 0.8456808737903397 1.0420098835687792 1.0747295808841304 1.2754770501671002 1.1858146281546094 1.026285969272503 
0.8390116617410608 0.8948489229913238 1.2694961779265257 0.8527376001852626 0.801576207432643 0.9456537697270994 1.251947845468469 1.1966629717939523 0.8108852409444436 0.8563836445719292 0.9459618659641884 1.0135991728136855 1.1287510727763723 0.8975935584047597 0.5843495746399401 
0.6803416893383282 0.8206320873744815 1.0500563992872043 0.8798867395842332 0.9541135216304107 0.9479194167687548 1.2536674125797624 1.2466450337289339 0.7654759867428528 1.0645431686358169 1.0753609823224228 1.130423913400354 1.3179387745060978 1.0449758215963567 0.7544715513825769 
0.7312105426277872 0.9919465818597833 1.0666881512403465 0.9681217539548442 1.0120999625469604 0.9708607786284171 1.1623765590092447 1.256411813779561 0.9071253165589734 0.9326790942554429 1.4363903641585325 1.3712003201816234 1.330876582883084 0.9129493249977921 1.0686073209930997 
0.8511376894915113 0.710546389754887 1.0224802822671486 0.9453331304395727 0.9313131707983263 1.1370636349920056 0.9850031290622435 0.7711029469895119 0.9596645754907193 1.1167060918542218 1.155086942635517 1.1560870119885558 1.3321291950882275 1.033301099653313 1.0906080687499324 
0.790194389979282 0.6760292779015392 0.99942334557459 1.0890548020205717 1.0820043644118447 0.9949154187383578 0.8825791072323897 0.7395585853730765 1.070951901154638 1.3241338649207686 1.1351421513994073 1.084071859922964 1.0877122482336605 1.0539209636922537 0.9065055199718123 
0.7381593144962258 0.6304869167956907 1.0229329734925297 1.1464802072431652 1.0979285891914845 0.8381233554934981 1.2553397941484965 1.302863749142671 1.1552279903014453 0.9995364029954499 1.197335098258531 1.1044983162667021 0.872356793554317 0.9555769993860475 0.8626331380055313 
1.1951904386990257 1.0875903774434676 0.9914523049783539 0.9186720190464428 0.8040909697346227 0.9623642896642417 1.1130279978693647 1.1576187394169084 1.0089705575043078 0.8422113101336071 1.092872707770602 1.1714817856028383 0.975223226999753 0.960694070083572 0.800794532726151 
0.9164573800088257 0.9166481450570307 0.9468394285901688 0.9452031262612917 0.942446397099697 0.982678925470761 0.9027787530295961 1.1775731408019343 0.8709681550232161 0.6394849993791386 0.9579845934812968 1.134763776758382 1.0502787373228246 0.9126551902616181 0.7302841709520896 
0.8998274059192822 0.7778827143301837 0.9910661671647725 0.9033016795836085 1.1631522749318801 1.2382842182758123 0.9335127481381433 1.144924500897155 0.8160301793841609 0.5980877825158898 1.0478496725248867 1.0725341518766909 1.1709647826029475 1.2288075806929855 0.8631955560817978 
0.8503253753630791 1.0113326011482777 0.8741852192370421 0.9408221552869944 1.2634541904754855 1.073325205867515 0.9848853721039668 1.1212304616266415 0.9701291780909232 1.0545272344130845 1.246141448287903 1.0239576137588107 1.3008536291676758 1.0751539295174393 0.7319547291044458 
0.8464541200186843 0.8814744494275256 0.9538913553088615 0.8367666323770306 0.9655843977916424 0.7715280527775169 0.7794535665823675 0.8653061637627236 0.7840515824152948 1.2679659479900112 1.4145504674749154 1.0515157004229618 1.1594820647110549 0.8782317922590324 0.5121154222199307 

1.0266066167516312 0.5892605296577991 0.7257433057725612 0.8789089908588438 0.8344295374871865 0.7953060602735499 1.2022569474033156 1.204542727700617 0.9906784042619107 1.0497766360511769 0.9899451041969803 0.7375566945010817 1.1886190650860256 0.8842622070998594 0.8367488992035895 
1.118906016136318 1.0354853384387193 0.9542058452003227 0.986540293138469 0.7862364442592757 0.7426767113293938 0.7470247137715628 0.8714477268282812 0.7780290932004253 1.240667043334343 1.1781962742229077 0.8343150207165407 0.9650102179455086 0.9186987269869121 0.9477800246759931 
1.211552210139411 1.0596666323201915 1.1226419528614833 0.9497104294426676 1.0243642765269296 0.8578890207219374 0.9991385238047529 0.924544690599981 0.9662098742975074 1.3292292563948118 1.385561127724825 1.1056416206312436 0.8589338732697493 0.9487969247444138 0.9443916684070786 
1.0796256320450124 1.0060835445412613 1.0319891622134016 0.9276122852648497 1.1414494563882687 0.9077592607481978 1.2555023016037028 1.160885315884594 1.1241894850098668 1.3778706631801891 1.484560120786092 0.8895901540241672 0.5916855598490974 0.9426174684104384 0.986434240971544 
0.9600269515702202 0.7880616524575187 0.7912512003576978 1.0322882105553444 0.9691931306028921 1.0747277978678558 1.32984668579594 1.4047122767488514 1.2494531999047065 1.1531570698577225 1.081523953956236 0.90475088092289 0.9495628263835433 1.2455632868961928 1.4319165612649098 