# vtk DataFile Version 3.0
vtk output
ASCII
DATASET STRUCTURED_POINTS
DIMENSIONS 15 20 65
SPACING 1 1 1
ORIGIN 0 0 0
POINT_DATA 19500
SCALARS Image float 1
LOOKUP_TABLE default
1.1500558959269256 1.2319159634838872 1.2900979401431214 1.3337925830469954 1.3025987740505531 1.201360049629598 1.059226076237383 0.8791618283819571 0.7500923474583641 0.8143412236748744 1.0469081234904065 1.269688655650631 1.3821394389374282 1.3832863941026732 1.2615078994739712 
1.0033928285758638 1.0829539537220936 1.1401035027095054 1.194600521949254 1.188872892939338 1.125094873802821 1.0549379741937557 0.9933885572630752 0.9836002828053669 1.1129312028751195 1.356332045055662 1.5582479621738106 1.6215649399991374 1.5637112801601893 1.4120682685869497 
0.8426398934162108 0.9363555060199535 0.99637911797845 1.0458506242776262 1.0492751551383064 1.018170301379405 1.0203629360666298 1.079524021681047 1.1898803356249044 1.3678335003731679 1.5829301145218047 1.7258343369419191 1.723767401319348 1.6069903838351736 1.436031185756515 
0.7617801109172367 0.8996307290154245 0.9775784406731158 1.0090545917903015 0.993478198216009 0.9638383821920972 0.9965365273330659 1.1222157002032822 1.3012221403816224 1.4867471054506698 1.6420016144002303 1.7143942537594858 1.6635058429001566 1.5147962761028606 1.3430493495436688 
0.806916119487621 1.0082898624842525 1.1163478949172267 1.1212337508427122 1.0599281276624128 0.994292327231425 1.0006429264584553 1.1149804321507104 1.2906724263155342 1.4446262040029674 1.535435488178189 1.5608204592832426 1.506205479691101 1.3693066625945778 1.214681806425113 
0.937418052202753 1.1927248524669993 1.3303452483045928 1.3089603016359992 1.19488106282733 1.0780129807968741 1.0246000959820063 1.0712255415817702 1.1911821744276292 1.299696054344289 1.3526208853642325 1.3775703134593353 1.3704746076344754 1.283995361564135 1.152058393560433 
1.066759886511504 1.3420987943876934 1.4998904993675377 1.4671477713732024 1.3223987942803177 1.174268487265286 1.0693537808341236 1.0361986207165526 1.0847222795850366 1.1588763896237912 1.213107178793357 1.2790216328291621 1.3481224285747535 1.3255955755561004 1.2055030657634975 
1.1350496703906878 1.3937254996113677 1.56425570861864 1.5481393250644775 1.4144157843463883 1.2760007373665365 1.1547526431131763 1.0622713133672312 1.04770419371284 1.102338865774585 1.1812367812091642 1.298490264824245 1.4339630235657674 1.4604025788469475 1.3355746977330822 
1.1427803102091358 1.362504480210926 1.5435597270654768 1.5712806325972717 1.4851940864815534 1.3885031761462252 1.281518941539061 1.1549254049403892 1.0876350447395107 1.1223872570097462 1.2186409116962715 1.362329489878935 1.5238151858040343 1.5704917276277057 1.4369288669877087 
1.128937077202817 1.3019744668565547 1.4875542299105171 1.5659432945954994 1.5359993242985848 1.4825796774292015 1.3959330156356793 1.2492974176995117 1.1344464861040926 1.1358595694502607 1.222042903146662 1.3517307017650704 1.4931929331339884 1.5370426757805755 1.4119907304554147 
1.1334999576368987 1.2569903306736059 1.4267120405256355 1.531648099608033 1.53332376478247 1.4969438260896992 1.4173504235928642 1.2589464464023665 1.1067352409622577 1.066599872397361 1.1194420055348084 1.205827371487179 1.2982937614728463 1.3299987614975883 1.2405485872675435 
1.1812844873512196 1.253349547741386 1.3743685434400135 1.4593179781939951 1.4511896699452986 1.399733012636049 1.3141662421700948 1.1585425704391787 0.9934173438919411 0.9212343559866817 0.9363298713629017 0.9739693382585937 1.0120832539064568 1.0299153758378448 0.9904624201097356 
1.2813702458600726 1.307745452033386 1.3510810940652522 1.3706409333642426 1.3197284367541928 1.2379265222753597 1.1471656908205192 1.0151640226935223 0.8675062966554185 0.782374594455571 0.7677233781559913 0.7677064896004825 0.7618074807574942 0.7628099799563831 0.762466627954575 
1.4192704087692944 1.4199650394010561 1.3787741465083645 1.3122190112622674 1.2123967861070999 1.1106443276975835 1.0271447089201806 0.9320408777108072 0.8172051261254216 0.7276307494362441 0.6864599071015371 0.6608786952176257 0.6268383652935506 0.6074220496093379 0.6196866441749486 
1.546308802986375 1.5506338435664087 1.446217133343774 1.307234771675585 1.1816988516165767 1.089393365872716 1.0264121391811685 0.9613699972426336 0.8667986059667069 0.7604131864194302 0.6833788408901779 0.6375499404228958 0.5930303644481325 0.5579890143177269 0.5633811820044012 
1.594319574981332 1.6260670404286945 1.4985141266562119 1.3276576181922146 1.216768339986225 1.167645443049027 1.1312827829429093 1.071764021719169 0.9658884447935393 0.8208368792721857 0.6962775491805316 0.6334314728991245 0.5985341795955322 0.5664116417158583 0.5666632673421224 
1.5210095358527456 1.5870714899962528 1.4789544971919693 1.3252624450703876 1.2671763106822116 1.2840912574043535 1.2718144435146619 1.1903690592752216 1.045579944691061 0.8530944192388777 0.684799701709176 0.61486329548174 0.6103741122450154 0.6067454878584572 0.6188558335672356 
1.3474553306611852 1.4394978903738864 1.3826312007575305 1.2843099917582217 1.2971305397690784 1.3807480614838452 1.3822822548929832 1.2618142060631263 1.0712966798117325 0.8481356585669629 0.6627637138298205 0.6046340948614509 0.6461328298321959 0.689973058879127 0.7289288446094789 
1.1453504247464017 1.2503808041878184 1.259303524994246 1.231408780163315 1.304866085319739 1.4306721548680597 1.4291276391866856 1.265887372938141 1.042517260989861 0.8224244676469772 0.6589090707284798 0.6336973685780541 0.7264026078497234 0.8221196079778478 0.8903275249809259 
0.9813086206130498 1.0892391176481255 1.1598014275335755 1.1930145581002698 1.2948219801810046 1.4229267124456242 1.4000312645193649 1.200613104976609 0.9642962097734578 0.7771042074887881 0.6662838055404116 0.6871744882231643 0.8257770691781224 0.9663437499338358 1.0573033051786225 

1.1356250335446614 1.2093554358406986 1.2457415197703305 1.2780055117331734 1.2683514592317588 1.202456814435119 1.0994980585300969 0.982437865279638 0.9183809233807325 0.9881770855996882 1.166098299621039 1.329215620951909 1.3933749495142629 1.3520193110097534 1.222114778249297 
0.9914148163962662 1.0673648678082672 1.1063978661906742 1.156113379688374 1.1900054992856548 1.172512996384215 1.1243139967591698 1.0978729334807418 1.1421519026489637 1.2768817574351314 1.4618133683626593 1.6096571759122962 1.65215392215767 1.58354415574482 1.4420987346720318 
0.848436376832841 0.9437521928974162 0.9920153908248979 1.0397326589807998 1.089207064155319 1.1059542764572439 1.1074681085492015 1.163423873934236 1.304262479552182 1.4861959850949558 1.650236230688912 1.7584315065228986 1.7771717335413824 1.6969591635508903 1.563045024020945 
0.7975330889823634 0.9422847302381965 1.0164668243461779 1.0467331238837312 1.073504099773288 1.0860621915814315 1.0967103758939225 1.1794036450862713 1.3554236385557967 1.5367277874585326 1.6511532076845103 1.7122043850842084 1.7248165246741816 1.6627977792473354 1.5567975815992177 
0.884464532799576 1.094087566350228 1.202929512559129 1.2032389523515064 1.1723972468071104 1.1396278328934453 1.1117703761764268 1.1545521725092307 1.2936198746798517 1.4293529616138798 1.487393179228023 1.5203305677799848 1.5591071822026774 1.545162130424663 1.475109075325674 
1.0686209956614103 1.326962606795436 1.4609868242043387 1.4240994268423726 1.3197097773496815 1.2220951855840068 1.1331444274846416 1.0989264931343743 1.1594195555519131 1.23674495513389 1.2651529751204516 1.3122115645421104 1.4112466086359605 1.4609893913218177 1.4151572680758169 
1.255081520324008 1.5250000811087139 1.666170078477812 1.599081025754101 1.434530193275791 1.2846052614624126 1.1477102288174255 1.0421670981669937 1.024177756504627 1.0612399326737538 1.1042244924671438 1.208525112368934 1.3852375293185606 1.4919181920608184 1.4447905892545885 
1.3654337098781841 1.6146878679795997 1.7543824830913515 1.6837636772724025 1.4981925650825603 1.3303407836959509 1.1785739033144758 1.0320268591780932 0.9572493789055918 0.9762304252417545 1.0622287059569042 1.2390332337926626 1.480023872693073 1.6168625585101841 1.5460407704034362 
1.3819208806978178 1.5978281753402421 1.741207599974135 1.7026481288807576 1.5412536113914443 1.3888745122804793 1.2498348939915158 1.090967081002829 0.9784331590880829 0.9827237589717159 1.103565259602083 1.3282743066608664 1.591189813391403 1.7230253570024874 1.6248531639524675 
1.3392454257314559 1.5208720288153983 1.6709630417616843 1.6837275190789587 1.5716707179787277 1.4478047313494078 1.32978115564709 1.1752718717560113 1.0372755746264612 1.0154205563151537 1.1366145406882393 1.3607857587389 1.5938106652323158 1.6912810559082057 1.582526580248032 
1.2916175908056635 1.4340951021033366 1.572604821350553 1.6187548124080076 1.545752423327781 1.439260979541019 1.3357427027466726 1.197781901835402 1.0527223112339774 1.0008556612933108 1.0912712581705304 1.2732761052666155 1.4396684516117824 1.4878226814254516 1.3918231870232125 
1.2882161440288207 1.3806692463374337 1.4680972327700115 1.4956260669698338 1.4229299749775297 1.3107658783015128 1.2136541347289067 1.1082172303686564 0.9870342807608237 0.9214835680139671 0.9726938292101447 1.0970575881932594 1.187801003120402 1.1858673919404823 1.1148862176909984 
1.3581344412222696 1.39834354530471 1.3971760940198945 1.3484159845204076 1.234526134183466 1.100678725134519 1.0091216552750133 0.9511834926376685 0.8830935070317897 0.8271934606556068 0.8459837753585193 0.9180293442456255 0.9461895135767634 0.9021195009122279 0.8506981980621036 
1.492142467682775 1.5000504689177907 1.4019076557781167 1.2476728962958825 1.0756869730561212 0.9248137694906431 0.8452503822288102 0.8355525730506942 0.8247099445582217 0.7837629250146746 0.7707278712640392 0.797658305241244 0.7833697221391209 0.7094446911515316 0.6631564817242821 
1.63172515058297 1.644416187148309 1.4785628965768756 1.2343727733949472 1.0229372017602232 0.8808900345770646 0.8222711725284031 0.8410479386542452 0.8582778875373944 0.8104582519799665 0.7513737489659348 0.7321523913911988 0.6926960028094798 0.605038878584267 0.5554026120858917 
1.6925088453143116 1.7436447920910552 1.5620463977938304 1.2778338305441794 1.069539724436168 0.9702805392671953 0.9386978709887623 0.953699954149957 0.9529676511693427 0.8670968319367964 0.7480450785545069 0.6820274511436574 0.6331091235482428 0.5527276193561488 0.5052302320602067 
1.6207338828852427 1.7236267322250085 1.576953849727225 1.3110166519583424 1.1473720621200894 1.1131296702922833 1.106566563510066 1.0874890443052148 1.0324673919799743 0.8953792007191322 0.7256427547760741 0.6284229462973705 0.5902902230175181 0.541720542115579 0.5123744028553416 
1.4362583806875682 1.5841489850114634 1.5055669591976577 1.3009511767760737 1.2008513689887077 1.2272454314082415 1.2317436172513205 1.159252914171553 1.0379785202149403 0.8652110660096005 0.6828341365901499 0.5898570195979118 0.5877578184671389 0.5941029743673579 0.600577083419923 
1.2166838570198282 1.3946277993775351 1.3957039169805725 1.26998497764564 1.2244731711744348 1.2812533781361752 1.2736719231224032 1.1412969145376297 0.9623486167912519 0.7841667807626216 0.636336248684435 0.5873898852080099 0.6427173315713486 0.7190036229536326 0.7741846982169015 
1.035131552572376 1.227900875441423 1.3000295313902042 1.247633171051036 1.231744271702114 1.280724777937051 1.2418327676550982 1.058035224650364 0.8402331971230835 0.679153555564438 0.5938599499428193 0.610349237457609 0.7285300906789939 0.8758728329532418 0.9850511557377084 

1.0614877057139913 1.1255926685390456 1.1579573867605824 1.2045932668254093 1.246815275705011 1.2336653255216143 1.1693046494846109 1.1120164981757918 1.1050814579382249 1.1544260284789503 1.2491408893609512 1.3483332852916932 1.3799766446806419 1.3115625186762938 1.1842297648252327 
0.9659715869659794 1.0267520165650996 1.0630698152759075 1.1295042958904529 1.2187456733579314 1.247793917375943 1.2055090957755792 1.1907775899890352 1.2618426361547743 1.3732165089434156 1.48265430353312 1.5807351881568108 1.6202216346371947 1.5589620511341145 1.440296319315594 
0.8578622677930442 0.9346888248739134 0.9881535690359396 1.0606098222479905 1.1678178890144069 1.2233086530462578 1.1998696466903174 1.2163840208792638 1.343831241316043 1.4952304086824877 1.597906840495341 1.6792266742743434 1.733325418245478 1.708956090041954 1.631002878397906 
0.82490100281758 0.9476578110269962 1.0356666282813423 1.1002696926815299 1.1858838597392065 1.2317332930734302 1.1992508798198247 1.2047742843950906 1.3299128084376992 1.4709492740273222 1.5386299893820437 1.5946325887723036 1.6753031783339178 1.7151416128441794 1.6999130042030335 
0.9248478246308064 1.1074236247134168 1.232347375193894 1.270724259088551 1.2945078485820782 1.2909713087226438 1.2188284168830426 1.1717076577278682 1.23765685614053 1.3259620779088555 1.3500185468392387 1.3922360747815743 1.5142159673358986 1.6287304421560682 1.6716367735054045 
1.1303544155819076 1.358005351696649 1.5012759588025033 1.494665353944776 1.4301204290897074 1.353018209904612 1.2299150056442287 1.1180962216753483 1.10423062078116 1.1344059382773342 1.141396402161372 1.205412855356644 1.3834402485155066 1.561542509629751 1.6305783076874176 
1.3447841324116103 1.5873011061264042 1.7254596020540731 1.670216482426996 1.519520026491716 1.3716533754051876 1.211288328274866 1.0557777947410116 0.9803111771676847 0.9791875171217455 1.0153755392960766 1.1427734131045901 1.3819590450525214 1.5942532123160031 1.645797536578299 
1.4731127908179036 1.707846773419813 1.8333897805598554 1.752585922895351 1.5504052156019896 1.358651613859117 1.187901237610443 1.0231806429438448 0.9188591433311011 0.9152632768166981 1.0110617006344707 1.2191920655309807 1.5025927648348554 1.7088531889871668 1.7095030424566509 
1.4819401738956262 1.701889234670304 1.8247934843509772 1.7581701184863814 1.555659937817044 1.3553393575084711 1.197399506368321 1.0507151002461073 0.9422088426072975 0.9439177588990042 1.0911481598251793 1.3570628038615502 1.6438195822832071 1.8032071447353424 1.7436345678091834 
1.4052155781425877 1.606609113993203 1.7331028498898098 1.70701972257483 1.5422109784535478 1.3581406932501023 1.2236333521016132 1.1102281951457482 1.0132667621214548 1.0125155261872067 1.1749865793387029 1.4493035764003661 1.690739262124025 1.7736443382411036 1.6672335433094116 
1.3099324036565845 1.4780520547825549 1.5889669965392574 1.5900600796645028 1.4647001870821552 1.3007123923592196 1.1898162360391917 1.1207569381285039 1.0548653588459098 1.0506107361333732 1.1946912028561059 1.4328224561071905 1.5967114974979575 1.5941227896312546 1.4642257573984012 
1.2598491082490506 1.3733026854539179 1.4266726725772365 1.4036879485101723 1.2846509502610193 1.128076564610427 1.0377729192373737 1.0247334392709035 1.0163442151343913 1.023902716362151 1.1371686010100488 1.3192901533301336 1.402763686408893 1.3274495241777982 1.1936740147980789 
1.2924774790442535 1.3438767919233858 1.3025995325751238 1.1977491455534834 1.042849145044055 0.880462453710623 0.8102100102283444 0.8591035412206594 0.9255539429880791 0.9608922703754776 1.0431215668246256 1.1678766168508936 1.1890750580197906 1.0669628718778932 0.9387906195948879 
1.4023535233286153 1.4134329850633716 1.274155950745265 1.0602747362099179 0.8490897843486674 0.6827635594175129 0.6362128938108681 0.7372238323094561 0.8669511755365326 0.9235508833025393 0.9662561770768525 1.0314922354002523 1.0101068527127532 0.8676852868762431 0.7464825692570088 
1.534147561211881 1.5482188540156807 1.3472039809299505 1.043453312685339 0.7904684543211584 0.6403435038418891 0.6232866544193986 0.7494567537849585 0.9003784255897472 0.9460932462750771 0.9286663401110277 0.9247706680234653 0.8712746284524848 0.7283394745103954 0.6135185720257396 
1.6051620209568367 1.6630452611720075 1.4568852932192158 1.1152743651048929 0.8577378714477353 0.7493510806334868 0.7639489459050278 0.8802382901082202 0.9999557435231183 0.9995308811906432 0.9095042406631118 0.8344536425065854 0.7571082735871991 0.629398029003671 0.524462221467137 
1.5578325122495262 1.6786407624126092 1.5180755661425023 1.1956161755451804 0.9683148363037699 0.9125720692166143 0.9495644721255486 1.023631801275537 1.0736608930520233 1.0148331346383113 0.8706408153216355 0.7495161794707424 0.6686075438852405 0.5755424697691696 0.49216743672888397 
1.4029354012481674 1.5828471988114443 1.4976004339740823 1.2347171299281778 1.0518197763796413 1.0336528869534711 1.0689834801048228 1.0769979398456169 1.0425842257056415 0.940744922154604 0.7902759004025685 0.6746656820518637 0.6253453079628452 0.5927575979487572 0.5515875704857255 
1.2097099783731848 1.432080288230018 1.4289405605146746 1.2430104405823097 1.0982734862839254 1.084588668254102 1.0881729098519686 1.0190696001244404 0.9045406602218916 0.7845838697779879 0.6769558490000397 0.619056029430895 0.6355985167822077 0.6872889410503099 0.7128897825737571 
1.0492881381105057 1.29149486038563 1.3568094384817697 1.2456676634767643 1.1261841634662444 1.0887053095223365 1.0445527988901682 0.9085178124256263 0.732028721788463 0.6086876456169414 0.5634807555072117 0.5850292056674286 0.6782406802497827 0.8203808645100422 0.9291396172633675 

0.9285596090661181 0.9810385300359158 1.029303469513087 1.1160737716327058 1.226809008315052 1.2691428307800172 1.2316356220549798 1.2041190782860438 1.2118054803112854 1.2093185511281224 1.21815637840592 1.2740867328722958 1.3045890080427744 1.2394628405412877 1.1309339505254994 
0.8906402195109097 0.9318525632147644 0.9898928629506984 1.1011148631734566 1.2525377796624872 1.3182122667191587 1.263042472026266 1.2203627026824853 1.2616046272139245 1.3134116447673154 1.3507666315682583 1.4205760482113878 1.4791610945075986 1.447405939618287 1.3642721251887018 
0.8110992242923769 0.8597374597417086 0.9447929049366242 1.0762200630269965 1.2473054439374738 1.3275967615062783 1.2623252309587683 1.2023532904048042 1.2563151037289884 1.3385024685274187 1.3847331867289907 1.4540983437774595 1.547136834534108 1.5841453857113241 1.5682905451071947 
0.776305404975565 0.8592762774024244 0.9841804338524809 1.1224310162440578 1.2778231858226357 1.346022608117369 1.2635719972410122 1.171149538869019 1.1978149287509865 1.2665654573644742 1.2944758923290265 1.350907093524257 1.480463794874562 1.6060342186092567 1.6786539648885341 
0.8604046580588861 0.9927172753879203 1.1512825264012272 1.269637024139493 1.3655461826968098 1.3858288547491657 1.2742749163921507 1.139179864124836 1.1087472812947832 1.1331011185580673 1.1343839425536264 1.1828052625082894 1.3485174317319855 1.5555479326153203 1.7012981214432625 
1.053200622426341 1.2299753403040699 1.3985450658283245 1.4670743192922395 1.4678211733096282 1.4115252108430365 1.2665619050976722 1.0981129975210782 1.0125593488813487 0.9965704714883508 0.9960462357161708 1.0654137839995337 1.267963847767278 1.5251608864401653 1.696997682174315 
1.261858240838294 1.4680544988360404 1.62434194808858 1.6312852733308199 1.5299853357983548 1.3909473979849865 1.2211607525470431 1.046016916719743 0.9347588938131703 0.9092035531137784 0.9492704004185853 1.0764843110849762 1.3124823076963388 1.5739933784009983 1.7141037999123308 
1.3846500569787432 1.608471569657906 1.7484001209704032 1.7129537454660109 1.539717026142887 1.3382830796085399 1.1607264555227785 1.0079213716087358 0.9055437891892867 0.8999637381230247 1.0077602058976112 1.2091252603294822 1.4604270523405267 1.6762769727525493 1.7395444116986725 
1.383654033414389 1.6172645946979713 1.7508378650701997 1.710753201670164 1.5172090604532396 1.2890444874159908 1.1206216929503214 1.0092831500944954 0.9388743636226006 0.962907068250769 1.1308722960189441 1.3870822299239904 1.6187893293372433 1.7459663990344336 1.7138278611026672 
1.2952184203185686 1.5236020122203127 1.6529112064555536 1.6332191527698376 1.461254104256009 1.2382194054345725 1.090184726890132 1.0296718777967417 1.0048063519382957 1.0543801969856577 1.2507216487039443 1.5195185630794015 1.6945174609658782 1.7094113856385573 1.590256324551694 
1.187479987546907 1.3823748907278386 1.4849573166361147 1.4739211742772573 1.3315404131314739 1.1282624286767597 1.0066835839139125 1.0041102873356413 1.0395620707849325 1.1147770259707324 1.3093851056345023 1.5525311240302604 1.652220953010897 1.5596426820878344 1.3796133921017244 
1.116824641912939 1.2484214931647246 1.285182324221858 1.2391998516465157 1.1018924305739461 0.9171041530111196 0.8268111786339184 0.8900361393412394 1.0023611012707552 1.1123575327692303 1.2900848491625525 1.4882356246298931 1.5201131526385803 1.3509828633706888 1.1415899560720457 
1.111900838945035 1.1709324547602873 1.1137198611150168 0.9878289502214919 0.8228986981408324 0.6524674631170904 0.6001895745397537 0.7317024982877663 0.9249512564468167 1.0727699690315946 1.2238576482133072 1.3686058638478693 1.3533585434228113 1.1493726262639443 0.9368201262844702 
1.1719065491600285 1.1816476813917194 1.036602506260384 0.8157757942032355 0.608842538039885 0.45783571327402917 0.45157069349809276 0.6400633807957242 0.8913848767893839 1.0571658437419331 1.1624705144339358 1.24128026143892 1.1930559885710235 0.9879377622993465 0.7871491905661391 
1.2633318131225502 1.2695219470263197 1.0771674853874749 0.7853278849676214 0.5486965372754895 0.43102275476197194 0.4748158504043689 0.6932804019425619 0.9551871400761263 1.0994894528972492 1.1339091938914092 1.1309865896799738 1.0516465997516882 0.8630372168165988 0.678515567151149 
1.327017276376092 1.3740825129558294 1.1886751253512147 0.8731344990336266 0.6329958879471079 0.5582867366303832 0.6441025644968935 0.8555281235492359 1.0746444371982262 1.1616371209005614 1.1165716352280786 1.0327531493494875 0.9257442371653017 0.7630546936040549 0.5968874876309996 
1.3113296374215522 1.4235511277034445 1.2895694499861756 0.9970560380593632 0.7737937660452828 0.7330925703878813 0.835031591558426 1.0005019475586092 1.1371104069688958 1.1555691397685957 1.0566389930792712 0.9267095945541851 0.8144495977258257 0.6931827700427055 0.5560162564911457 
1.2127432264012064 1.390285418852589 1.3301594836772557 1.0913460384478502 0.8899059625390043 0.8542800540663931 0.9327135625206885 1.0193910409649818 1.055164446674004 1.0181965374554252 0.9161507767898783 0.8005467932120608 0.7239939826953932 0.6703757135951017 0.586681548011135 
1.081348612519885 1.3060055277614553 1.3191708674493245 1.1459116438916541 0.9614228549500089 0.8979204619952343 0.9171149115630493 0.9089345844246345 0.8457094826618057 0.773374709391759 0.7126449266241629 0.6646596798476229 0.6608493223767576 0.6992104137196111 0.699362354533324 
0.9787500549791376 1.2202390348898215 1.2865312841708052 1.1754830978562554 1.0056187162053132 0.9002354102499274 0.8517880915567104 0.7627329825183765 0.6224747824758042 0.5278046332084108 0.519618152925209 0.5537785742916422 0.6292704039046668 0.7610937613097853 0.8618933894086814 

0.769897641944094 0.8069348667964854 0.8794239710549281 1.011133254756437 1.1780756538741262 1.2620752309146965 1.2373115838683404 1.2002436108916896 1.169522560183316 1.0971009588111662 1.0451899827373534 1.093101427495684 1.1568634844086825 1.1289497705274307 1.052313994318956 
0.7561193045633579 0.7785846593296805 0.8762850975903301 1.0471571725454734 1.2506519699204977 1.3398616916518886 1.2658563826015152 1.1637819709937882 1.1204640854141168 1.089931648919296 1.0788222347277292 1.1488069137903878 1.2439888422095113 1.2590739419127042 1.2155940784246781 
0.6887350618352065 0.7079278363543947 0.8420350655225314 1.0510208616081613 1.2778690774403034 1.371716010423993 1.2695964339026893 1.1193181623024384 1.0569420557942042 1.0501230900395515 1.0614851207572105 1.1362618886235043 1.261485097404421 1.350095160890742 1.383086876850776 
0.6516734934350009 0.6872232180140462 0.8572537147144348 1.0834451673278822 1.2993078448024478 1.3782061157202552 1.2592598081763633 1.076685827452612 0.9853600975200759 0.9748902473537887 0.9861394701166782 1.0508857638828442 1.1998041304818754 1.3730584387513942 1.5010748886394083 
0.7235098230485921 0.7932830125104765 0.9834532254518886 1.1891168782459256 1.3459214376115556 1.3758370866214205 1.2401062613606788 1.0413439448338555 0.9204589266834401 0.8911502484848871 0.8960859862485181 0.9526853159581298 1.1184894984788976 1.3610685456773268 1.5654976367108535 
0.8981834206178086 1.0128545869358563 1.2013574238812748 1.3507247852989082 1.4090374340338645 1.3593497276712299 1.2035148491279242 1.0080977944739966 0.8741810281432798 0.8348962871295722 0.852168105693952 0.922931070055757 1.1014679351079555 1.3757294316899547 1.6067244318140794 
1.0848807637520625 1.248673932044278 1.4231667174996647 1.5050097901971076 1.4576484049457212 1.3203256361010536 1.1463223864866694 0.9754239298935157 0.8562282073241598 0.8315819584114861 0.8910139516770498 1.0037244526360412 1.1882198751430777 1.4431514436305446 1.6382445820544396 
1.1872009677664042 1.3983128402430967 1.5620412704029256 1.5960497167139929 1.473389763249846 1.2684255195221392 1.0852406190851562 0.9550302828182647 0.875482966811467 0.8867740222246908 1.0056887898248015 1.171514947977153 1.344699295450969 1.5270808011339043 1.6326697943320054 
1.178229989533385 1.4240864876837107 1.584835388785172 1.6036603564046064 1.4540262624057854 1.217057973017059 1.0362158943664 0.953562462087839 0.9274869931452306 0.9820249967053328 1.1536802249641713 1.3582745819737165 1.4941186487083762 1.5628463848481324 1.550314554936492 
1.1016228203481884 1.3536244674892632 1.5053699778428413 1.5261098215740727 1.385604281838401 1.1486506031767934 0.9801909039454955 0.9461402907170106 0.9802428611062974 1.076995064248865 1.2797358292888563 1.4947355178043136 1.5725170988664603 1.513547817934258 1.3853953974006816 
1.0156017094594838 1.23326600119973 1.3493093809444079 1.3585352511568112 1.2335544500798403 1.0144435559429357 0.868370673629265 0.8861433502411383 0.9882747032509126 1.1286890975532127 1.342554976866401 1.5438052562777371 1.5620900597499956 1.3952581157743307 1.1801060988731975 
0.9500734114786967 1.097617791425448 1.1440299083772079 1.1085736564291784 0.9824812656030931 0.788818297270922 0.6797227500675823 0.7583762949488257 0.9372792341345375 1.1251587825946912 1.3369800412329944 1.5105748690533245 1.4862176424199083 1.256300289131854 0.995188755235837 
0.9116333905594026 0.9774016117728737 0.9366506620928658 0.8299656885640105 0.6845826682674518 0.5241227443692423 0.4719524137241564 0.6206503754409849 0.8746844336145444 1.1034513139397935 1.2976929160681303 1.4310758564265105 1.3830909517387746 1.1384569697595075 0.8685982975375128 
0.9050739798034996 0.9094636610776191 0.7951167245649612 0.6174301815872667 0.4496288712738701 0.33407982182702545 0.35660204033469545 0.573297131935947 0.8789846800835377 1.1213272412776192 1.2725783969530462 1.3466587035864022 1.2813028970190707 1.0546117147385075 0.798757395441964 
0.9304386371077372 0.9164881770958884 0.7686069062486427 0.5473747655837286 0.36897088247801735 0.306138107894129 0.40585737354110385 0.6689295179057465 0.9815231766470256 1.195668681350882 1.27762773062693 1.2752259826174086 1.18826758933147 0.9929374511263855 0.7601012578141229 
0.9645016278734849 0.9782295052229486 0.8450401436537912 0.6196841953417521 0.44507840222025297 0.4264604917308322 0.5804303758403728 0.8490389198677867 1.1159777095648087 1.2655150981940535 1.2715042256671945 1.1975910888545669 1.091792397698216 0.9343443409807719 0.7305819406997646 
0.9674084167466528 1.0399594654857702 0.9589743809701254 0.7635006084694321 0.5984558457527885 0.5947060066150637 0.7558101085484906 0.979287655387287 1.1568944129074614 1.2270733496607065 1.1813706759091556 1.0737835785305814 0.9726880989568853 0.8668132746502306 0.7070886471892243 
0.9214006246549791 1.0598350968467458 1.0469269622416517 0.9001607209774475 0.740822805425547 0.7119837938301555 0.8248900625385766 0.9586824549308532 1.0235297834389199 1.0217135715724206 0.9677441331793294 0.8828117558611762 0.8240560648233956 0.7909623005269625 0.7009728240276345 
0.8564311713502271 1.0431671378859573 1.0902984279213017 0.9945460962465972 0.835358990243311 0.7515923075259962 0.7780996218030046 0.8024500779554844 0.7570222268252228 0.7018024879831003 0.6755467509518994 0.6562870750105669 0.667162555633026 0.7199518852344776 0.7234108588453162 
0.8235948821672162 1.0232494319618775 1.1033871554649064 1.0483100258055744 0.8910633876006195 0.7512422464011734 0.6919571954613433 0.6259793533026076 0.5010886425986779 0.41355322774465286 0.4243611523910571 0.4758328028533918 0.5513281631193179 0.6767492976106343 0.7754644966654293 

0.6362851217373384 0.6536155725173555 0.744325595187602 0.90128457779859 1.08756904407822 1.1920379959752792 1.1764780980927378 1.1078517651919837 1.0094817022758114 0.8779041825978827 0.8065399322566068 0.8745489670882232 0.9881286621438645 1.0158790827929969 0.9696790820294394 
0.6003177239356506 0.6052136664539697 0.742799964827846 0.9634043984200887 1.1917811489294543 1.2944707008360261 1.2176229231748814 1.0571801232498843 0.9117656095067618 0.8072540987204347 0.7823368648155544 0.872150889083276 1.0055069402122414 1.0695207245112648 1.0555080829506798 
0.5389370469704035 0.5292806702423811 0.7069391386725 0.9804130229048948 1.2360808941885653 1.3362034478555707 1.2255614495978744 1.0096639635838873 0.8341986811547526 0.7529287344843004 0.760829946999818 0.8533587521212674 0.9959574873629474 1.1147158955125924 1.1688745164741512 
0.525759182973172 0.5115347892220606 0.708809044692595 0.9971661897521771 1.238180487037099 1.3135903058750587 1.186409701872329 0.9537155731626024 0.7696523564178916 0.7061764149011774 0.7327226074536799 0.8150763159366693 0.9580379897517425 1.1368842408038478 1.2749079685394098 
0.6190034463894817 0.6217627538279219 0.81498152207353 1.0695168177109171 1.2432291455796922 1.2585724658635473 1.1165486373182607 0.8962144746006456 0.72442231051417 0.6772717318316099 0.7175558360367417 0.7911047830686064 0.9303417872245344 1.1571075155681982 1.3659854768579969 