# vtk DataFile Version 3.0
vtk output
ASCII
DATASET STRUCTURED_POINTS
DIMENSIONS 15 20 65
SPACING 1 1 1
ORIGIN 0 0 0
POINT_DATA 19500
SCALARS Image float 1
LOOKUP_TABLE default
0.9590904048686093 0.8940133283703485 0.8372644990899799 0.7915078588776012 0.7561740163512173 0.727407925958482 0.7005329154277876 0.674176796000224 0.6534539467904472 0.6495132030951277 0.6747120158242651 0.7355553068214935 0.827420364830995 0.9345363702645691 1.0357970916132737 
1.0429161634429094 0.9820091267945732 0.9270891379773616 0.8780592929865612 0.8324511576876817 0.7860824513846689 0.7356940434137473 0.6827340742602127 0.6358736376085554 0.6097755787292506 0.6195237357478759 0.6729529129080648 0.7650273603632873 0.8779039836134122 0.9873757818988553 
1.1036084298928435 1.0475069976795077 0.9956043498613252 0.9456637236413865 0.8938877391000367 0.8359272674704062 0.7694330185136486 0.6974767546833996 0.6306715657533563 0.5856589767052737 0.5793412238850714 0.6209773075876422 0.7062418377767227 0.8170112676801488 0.9278197115146278 
1.1244221935199712 1.0728219967721264 1.0253704368886507 0.9785691225922535 0.9278285110241623 0.8684777613802194 0.7980569138612625 0.7194879838163232 0.6432125019131879 0.5860021432716388 0.5655870338639895 0.5928670158805602 0.6655943453057395 0.7674110893155017 0.8735966546711106 
1.1001065733807631 1.0514010502631104 1.0092334928230033 0.9698105683933602 0.9281876127515699 0.8790077508192634 0.8184633628389363 0.7474098460718976 0.6739585856306888 0.6131841034716086 0.5826760149409697 0.5951541254995815 0.6516944756116153 0.7395688485149157 0.8366189737501889 
1.0405827425564906 0.9919339774298465 0.9545670338981843 0.9252452339514783 0.8989960978816003 0.8694268580892929 0.8303556216094633 0.7790386384077332 0.7195381460052751 0.6637286582806621 0.6281528060094616 0.6272743635719912 0.6662367803234132 0.7372256570221528 0.8220050447787579 
0.9676352266553142 0.9158043264353527 0.8814365825174698 0.8623950547361541 0.8539214292558619 0.8484985054400624 0.8371615236931669 0.8128773983557461 0.7747641130575962 0.730531508193269 0.6948358660696613 0.6833822953300257 0.7053620704768154 0.7583378902424022 0.8287672330263308 
0.9054886181565508 0.8482540071684008 0.8146121716230824 0.8036294884937601 0.8109457848779936 0.8282520146249751 0.8442412542803263 0.847973926188316 0.8337248117900339 0.8046998171834859 0.772906931791642 0.7543299796510917 0.7613889528628858 0.7966567860849932 0.8514918658263559 
0.8700966069116689 0.8076385918391079 0.773280445519915 0.7669310867123909 0.7847592449700089 0.8184101280230935 0.8554755149696134 0.8824765589352083 0.8898487261986412 0.876534119780665 0.8512525410151793 0.8289903568367104 0.8239949336413759 0.8428763124085515 0.8816945688772005 
0.8630020484372611 0.7985333821459109 0.7639436580797685 0.7592585465013288 0.7812271942497956 0.82241641834072 0.8710204899021404 0.9129763215230717 0.9364541919200412 0.936797898882511 0.919004711577014 0.8957711594947608 0.8815987552378568 0.8859374662140094 0.9091693615454729 
0.8729486568015753 0.8121906115894707 0.7801232356164862 0.7760030073410631 0.7970861698051485 0.8377283517613616 0.8883649445280456 0.9363040440483807 0.9691247363797197 0.9794514491317825 0.9684298699334677 0.9455142878766553 0.9241859179759883 0.9157253246296286 0.9244916411677362 
0.8838054998602652 0.8334484601904523 0.8083592389652039 0.8062349237899197 0.8246001132832891 0.8600255859833151 0.9062142761548073 0.9532097528982045 0.9893115665442406 1.0053083615851013 0.9987464712820568 0.9755177011072628 0.9474786749340228 0.9272210713132827 0.9229021429507809 
0.8838536735274749 0.8495867117861332 0.8364072093407096 0.8399895882697189 0.8577132995656288 0.8881144812277797 0.9281992462819093 0.9711179897745249 1.0065292859809998 1.0241234997457602 1.0184938024048238 0.9924017911420918 0.9562881400729475 0.9241161838409808 0.9078334755350594 
0.871254558930802 0.8560808249068282 0.8587977305852947 0.87305435890038 0.8955346520811871 0.9257779751429093 0.9630645116142108 1.0029515092917571 1.036355573358163 1.052400822381856 1.0436958576741895 1.0109541728118034 0.9640852679043154 0.9189156662198044 0.8912289524290171 
0.8534172773360209 0.8567850967439347 0.8772689701944173 0.9069424066317272 0.9411900931110276 0.979069810130386 1.02030725903096 1.0613657564223902 1.0937677947584294 1.1064320548781463 1.0911257780099484 1.0479468817666526 0.9874656479400472 0.9279641601547134 0.88896924164449 
0.8417959745238949 0.8597335327733349 0.8971098766684295 0.9451764184662811 0.9974709332230937 1.0509258691562027 1.1036071405463037 1.1511082646779665 1.1847214332014793 1.1934483174081794 1.169343946607107 1.1132731914340526 1.0374950773265454 0.9630529045284183 0.9127957083507288 
0.8458131782644865 0.8719454280284477 0.9226438136938141 0.9891543739187487 1.0627815315597209 1.1369539199736751 1.2063040581769604 1.2641039104612641 1.3008037267404022 1.3058169317712793 1.2724215626975197 1.2032112880180201 1.1125903801100936 1.0240826427012313 0.963001510547598 
0.8690393793891534 0.8961758796283593 0.9546679333353523 1.036385540362879 1.1302458124662578 1.225409357153024 1.3121258752146416 1.380684288434984 1.4206054140832034 1.4221551140789415 1.380450602743009 1.3001332660219331 1.1974361741522075 1.0973996391082248 1.0265324962347444 
0.908449023590743 0.9303345909478974 0.9904319496078312 1.0815034130453225 1.1901774222471837 1.3013610626156287 1.4010121557634587 1.4767404233212251 1.5176545199548506 1.5154166654474257 1.4672364856206932 1.3794702282271074 1.269163051779767 1.161373938801706 1.082295321722793 
0.9555835935459615 0.9683505207215849 1.024741574036981 1.1182845101066707 1.2336404781223145 1.3521917760883233 1.4566134721213064 1.5329363190768084 1.5708112203687903 1.5638475073185005 1.5112748161128287 1.4203744549346378 1.3076050950083808 1.1963661910622738 1.1110517404296458 

0.868222325956543 0.8072712633355904 0.7613736202727831 0.7308678886146908 0.7117273732934888 0.6964341821413425 0.6774839202039765 0.6522169509398116 0.6260815557943072 0.6116924077315585 0.623304091586157 0.6692645219329457 0.7466800010798443 0.841621732163189 0.935078087687389 
0.9639394472994652 0.9008579330810884 0.8494239552196007 0.808560680407686 0.7737255181385218 0.7381550479879263 0.6962889139043499 0.64815873492098 0.6020446207902374 0.5729314449078978 0.5764717305460906 0.6210751347087133 0.7024566387698915 0.8041208280925917 0.9040701754176635 
1.0487612067712329 0.9849558308102525 0.9287122035497569 0.8784522609829315 0.830161796734141 0.7785234980548271 0.7198744096099939 0.6560321819233295 0.5965643265487045 0.5571404142140053 0.5535764736564793 0.5940073199842134 0.673428314842991 0.774180246905475 0.8728694699297701 
1.1010918237028875 1.0380463435940834 0.9794632108177838 0.9241353128576363 0.8692314237082581 0.8109240916654316 0.7466565896562406 0.6784748774265125 0.6152905152107631 0.5717148434623823 0.5627669293847581 0.5964715782118518 0.6683381523283382 0.7613873483816994 0.8525959525964234 
1.1090557567655615 1.0473593793241434 0.9894328586425819 0.9351178663951483 0.8829361950426281 0.8299877789513547 0.7734977784003194 0.7138754423297661 0.6574148285384683 0.6161599883670003 0.6037475152306216 0.6286362850615432 0.6883521599087178 0.7685351051080511 0.848215227444241 
1.0764803697841772 1.0152109771196465 0.9601029186872009 0.9124144637121113 0.8717656458031767 0.8352762504773009 0.7985183697054301 0.7585732901553668 0.7175417068462099 0.6838307328199565 0.6694311572720052 0.6838760229531641 0.7280749734503341 0.7919499699305895 0.8579813352419808 
1.0213821929570615 0.9584175423261992 0.906763604248183 0.8690898939378884 0.8456064910346582 0.8325777651086786 0.8228678350771417 0.8091852036338311 0.7885723083891415 0.7652621267067723 0.7495081911748431 0.7523274101278579 0.7788656528497419 0.8244159625236717 0.875906297488846 
0.9670800541206581 0.9003393741399666 0.8515814528760065 0.8245099795437453 0.8193726799943702 0.8310845674355274 0.8495103092074376 0.8628964571251131 0.8632307519763526 0.8505480540607414 0.8332799841974806 0.823867645919318 0.831804374433163 0.8581283637889668 0.8947936578032476 
0.9307005069900333 0.8597250731471491 0.8132054512230086 0.7952023169102111 0.8055755713176419 0.8379680769757551 0.8798504578395759 0.9159101226212658 0.9338960639421874 0.9300271424705867 0.9107317922796031 0.8892890037486244 0.8789120413017454 0.8860889931541759 0.9080151571258872 
0.9155875422772236 0.842622110155006 0.7987735311447469 0.7876177729116359 0.8084097001697759 0.8541297160772627 0.9111842761811072 0.9623380731229949 0.9924760531892772 0.9946347083309267 0.9729619125001565 0.9406094434343146 0.9133704252579963 0.902422864773311 0.9101510938288176 
0.9117591012664699 0.8417314605380584 0.8027113307671413 0.7969610602269012 0.8231001721947382 0.874338356953303 0.937646811765846 0.9957618688684473 1.032262479211919 1.0377308175499587 1.0137600482960332 0.9723289082352384 0.9305243701683156 0.9032752080244749 0.8979316279839444 
0.9036410055466614 0.842987515116323 0.8124594297012638 0.8123703114727808 0.8407623412572944 0.891880814899423 0.9546550703321046 1.0134044805887465 1.0517591699217146 1.0585477199267919 1.032688681956941 0.9841982630152118 0.9304011136202305 0.8891244819469143 0.8723551589186532 
0.8800938899569075 0.8349115427987542 0.8171135637591482 0.8247619621454677 0.8553421253716841 0.9045078676824496 0.9638446899417852 1.0201525938869467 1.057990047725034 1.0650410259283505 1.0377186315307165 0.9837948169009284 0.9202600558355449 0.8672338409979093 0.8409220855699601 
0.8408703336821258 0.8151172301130897 0.8136283324986392 0.832299793060464 0.8679446155298463 0.917364111753556 0.9745754189103193 1.0288596329257362 1.0660042955750026 1.0730612250627578 1.0444542146620293 0.9860118773255333 0.9143541115446984 0.851541600199904 0.8174706886775951 
0.7963775461636222 0.7907334517574726 0.8073755747336117 0.8404620575561911 0.8858488098852146 0.9406097678936108 1.000128040181455 1.0553852034001436 1.0932238406928634 1.100518394222985 1.0705174750797406 1.0078644455912857 0.9291510456856102 0.8581576798496052 0.8177910355668478 
0.7618667978692111 0.7735450585466813 0.8077243093637781 0.8574565011988798 0.9172302581579891 0.98313717234276 1.0503767017355088 1.1104327948862838 1.1508025748296706 1.1586345903579245 1.12696950473536 1.060205221290903 0.9753347319999738 0.8975725298565336 0.851979293199044 
0.7500601556275498 0.7735338235993292 0.8221674858306408 0.8885533994566028 0.965379592541691 1.0464849859543635 1.125356075523035 1.192838325461187 1.2367511650759586 1.2450039816987242 1.211354874238669 1.14075554198021 1.0508096967145568 0.9676451507783367 0.9174624849527061 
0.766169011380445 0.7945559542560986 0.8526158332731967 0.9329619674428339 1.0261491724096186 1.122847114033621 1.2137946585005883 1.2885296962592627 1.3351580792717752 1.3428702526982486 1.3068421516108346 1.2329848638822276 1.139301257135124 1.0520082290322788 0.9973486979177633 
0.8068859438358138 0.8336246348471775 0.8952161600860603 0.9844984948949412 1.089765465365212 1.1982046571610656 1.2975509957733027 1.3760475783803106 1.4224234671829126 1.4276527939530572 1.3886884130373383 1.312314242307044 1.2162811418189952 1.1258402421432518 1.0662171808030116 
0.8623428472295473 0.8827280378184177 0.9424646090360982 1.034538538952407 1.1451143159852109 1.2582433625577578 1.359185104699792 1.4355232287305584 1.4772182022693756 1.4774234241508495 1.434866682199174 1.3567079435976819 1.259524939296774 1.1665152166194002 1.1010075994205004 

0.775416096223256 0.7255467093740523 0.6949182499559904 0.6818327248359206 0.6796099236510759 0.6781362583011906 0.6680711051076095 0.646048623397396 0.6178053789420986 0.5967400417439112 0.5979029814591795 0.6303370932729827 0.6920775252759429 0.770859459205667 0.8502750798940018 
0.878800343314458 0.8193637301827107 0.7746762602625048 0.7432271541565469 0.7194031771079951 0.6950238760759265 0.6632037883755441 0.6230365338224744 0.5822229248746317 0.5552576963922069 0.5571830375894118 0.5958260604743161 0.666896480635696 0.7551240562181535 0.8412396028570163 
0.9838100165749742 0.9169715798660402 0.8586223998358384 0.8084576993776625 0.7632583191713685 0.7178591871517009 0.6681966122315112 0.6152740988632696 0.5674492893959836 0.5387104910572764 0.5427769764544011 0.5856948731083579 0.6611816967891492 0.7519775725248078 0.8371856839306194 
1.0651966060559102 0.9944076150987302 0.9262361376448391 0.8622797345367968 0.8023043845716432 0.7442580778279291 0.6862681237085814 0.6299322827301576 0.5826087281983231 0.5563213598106578 0.5627352505121791 0.6064022478582625 0.6802605334284815 0.766737457320701 0.8448000717296104 
1.104986176048877 1.033378120987123 0.961029834656974 0.8917167499050072 0.8279611523142922 0.7699462033778086 0.7165041096910433 0.6679981059880827 0.6290654108795337 0.6086612405671924 0.6162995335243072 0.6560466152245746 0.72189616160617 0.7980238436541918 0.8648320747209012 
1.1004929420331737 1.0295127689753918 0.9583454088298105 0.8927906498599184 0.8372340035016907 0.7925659328731236 0.7564228811143372 0.7260393024940701 0.7018697359363355 0.6891479540008898 0.6956086394442479 0.7261872369572415 0.7779320393805651 0.8388350476842378 0.8922234048553218 
1.064776655002821 0.9938880354422145 0.9274704297969365 0.8728302416419111 0.8349842338830017 0.8138760086153081 0.8042273947111419 0.7986976866459792 0.7926481802219414 0.7873822377398835 0.7894009586280452 0.8057267952598156 0.838112678410419 0.8800609262192297 0.9190978922041808 
1.0188845630038545 0.9465336906176565 0.8863445180475829 0.846359892029254 0.8310347934362521 0.8381240079107747 0.8584487527259098 0.8795120882090333 0.8914048339980641 0.8916516458894794 0.8859368278830457 0.8840317262598499 0.8932853624248678 0.9137425597498726 0.9380896681176333 
0.9803235635245774 0.9056394315952282 0.8518702343143875 0.8269058934146486 0.8337934133001558 0.8676401249971072 0.9154322539503362 0.9599852192566207 0.9866973031175202 0.9897102690254831 0.9739815828190721 0.951921772382611 0.9364247188522382 0.934320922457206 0.9440387899082436 
0.9545584340136776 0.8788578239959431 0.8316845142590019 0.8199014145868201 0.8447989390148319 0.8992474768182926 0.9674952317447967 1.0290760633323723 1.0658827130283983 1.0692037869470554 1.0430043785810312 1.0015044320533937 0.9622339622428673 0.9383153735559646 0.9340905586834952 
0.9343430245809635 0.8616431083366154 0.8222186407701129 0.8211671387503242 0.8581379077695119 0.9248292684340221 1.0045305393654362 1.0754622516727386 1.1175340400135578 1.1197674147091017 1.084651804913912 1.0269533903044186 0.9673813853382424 0.9243175136322248 0.9077801217835123 
0.9067152491421256 0.8429948111843093 0.8137055894763144 0.8216703517176037 0.8652950030820884 0.9363977121034257 1.0192136622005492 1.092660979857449 1.136199684973422 1.1371887131695275 1.09617991089497 1.0271987752979128 0.9525469683846597 0.8945667094116211 0.8683453739406707 
0.8628440115783105 0.8143966942359795 0.7983671726913549 0.8150771844853615 0.8621195742437514 0.9324680818979536 1.012758725208345 1.0841608496668091 1.1269431887823016 1.127416701575532 1.0839960060171125 1.0090393104076791 0.9251097701126824 0.8572075881829462 0.8245854069125791 
0.8045776683462722 0.7761480596803442 0.7763007820649266 0.8029187345205308 0.8530218340859586 0.9211478844911352 0.9969335158478639 1.0645671981387048 1.1059344572935905 1.10692403354581 1.0640231139288931 0.9875842016231487 0.8995913479716579 0.8265801064121642 0.7908738012108222 
0.7441325275837855 0.7375057341410307 0.7555688358225414 0.7940710323993444 0.8493888393201278 0.9172678247987192 0.9899786577221448 1.0546439850380525 1.0950945682186548 1.0974245787943215 1.0568103782882172 0.981853541675404 0.8936370976711343 0.8193612843851611 0.7832607377637301 
0.6978683564018471 0.7113084342522693 0.7470733214978035 0.7992390400082611 0.8631730702311275 0.9348385567175548 1.008009803743625 1.071999206293622 1.1125347482388 1.116514679556444 1.0786776820690283 1.006521830950568 0.9202703971005222 0.847140488684112 0.8121832235964604 
0.6784389681688878 0.7070476233483319 0.7580551477168281 0.8243714792029341 0.8998293880204938 0.9793259814529818 1.0566735679223083 1.1223372216662924 1.1636995875929608 1.1689812611587418 1.1333717178214098 1.0639893054933482 0.9803480766824293 0.9091700354018283 0.8754039488681773 
0.6898046873281055 0.7266396394372449 0.788390875113449 0.8672545474232352 0.9550420811069964 1.0444303745661019 1.1279645342009088 1.1963340375188536 1.238325994360261 1.2438617749625762 1.2092409835906017 1.1416952013609154 1.0600486037400327 0.9900626967357425 0.9559141475862408 
0.7270220157212876 0.7646845403423675 0.8313991841679426 0.918980325000817 1.0169609181705646 1.1151311607840815 1.2040159321953428 1.274006553439417 1.315162325075569 1.3192951956391168 1.284082849808886 1.2169466949275525 1.135777135337904 1.0649102113444053 1.027350768037631 
0.7795694147485486 0.8118834500630048 0.8776918106638757 0.9686276718561244 1.0720366277248146 1.1748227340909079 1.265455800156022 1.3340147986417046 1.3718457444991219 1.3726328043637697 1.3352813889368655 1.2670593141430562 1.1844372368884004 1.1098776229530443 1.065051334993035 

0.704677109603174 0.6728080609783961 0.6600118137617365 0.6631702474866835 0.6742913098049211 0.6823737047826626 0.6778666501522109 0.6578194766061226 0.6286015260915275 0.6039291720170566 0.5985842699194039 0.6210209244429911 0.6691056912018915 0.7316229765656758 0.7947444531458908 
0.8102154737638705 0.7623612713906508 0.728268235995179 0.7064602590852255 0.6913860645919917 0.6749311281957521 0.6503337100205291 0.6168035024693349 0.5818880045684794 0.5593558689652427 0.5629107430991002 0.5988763757984322 0.6621516929084177 0.738203283142339 0.8103604233835724 
0.9270482067374174 0.8655526895521842 0.8100900036081319 0.7617961280551324 0.7189579171364308 0.6776086014405672 0.6344010641866954 0.5904543105498615 0.553476490851488 0.5359162200613506 0.5492067415865801 0.5969562625893016 0.6712576453260674 0.754979584152773 0.8294886219509178 
1.0287356979601305 0.95821768663746 0.8860837143530077 0.8165460557367337 0.7521536353516362 0.6931221313285366 0.6389516029762122 0.5915433003651502 0.557395870582564 0.5465106765839596 0.5676243789979912 0.6221239127751402 0.7005666110376513 0.784794953603939 0.855472288953686 
1.0934398819840823 1.0188096813329688 0.9376091591024911 0.8570455243788333 0.7833259176093309 0.7196597145011473 0.6667339142309173 0.6254113457658422 0.5994561929238628 0.5956655933339766 0.620405300623286 0.6742515682951004 0.7483511971760447 0.8257016211456819 0.8877771471711272 
1.1131365555676327 1.0377247030620262 0.9553706206959715 0.8757258658127846 0.807261793690796 0.7541564572085687 0.7159982417546521 0.6905297133353382 0.6773711290646846 0.6797442744014393 0.7024642153317059 0.747165131191681 0.8080477726785628 0.8716527154204123 0.9218772317392326 
1.095748493575531 1.0205417132899077 0.9431333584883612 0.8747505315855553 0.8243829997413894 0.7949551862170935 0.7827343352726629 0.7805614326866289 0.7829049497697517 0.7893617487479302 0.8041216589170107 0.8316094804328431 0.87126459996496 0.9153033247673554 0.9515770583820332 
1.058864571281027 0.9832002363185532 0.9141788579610073 0.8635902975484228 0.8393355575607037 0.8413429130225917 0.8610845033011558 0.8855380335013818 0.9036440471059431 0.9115489306443771 0.9134734524000855 0.9176980357630126 0.9302670763283964 0.9505423219070548 0.9715933150011667 
1.0189660726371408 0.9422244316229567 0.8828615129315273 0.8522274585020654 0.8560546998718112 0.8905075471825963 0.9419969607820954 0.9918073488821251 1.0237170600160233 1.0307351062518872 1.0172710390132385 0.9955575531886873 0.9784888391804285 0.9731252192158878 0.9785799686900885 
0.9828320669793056 0.9061559537072283 0.8567923721541101 0.8447700580115667 0.8732789326192756 0.9350867739506414 1.0125716017063304 1.0826305279576371 1.1249428915616027 1.1297871635178014 1.1014079739052614 1.0551339990177728 1.0098404575444184 0.9798769847019885 0.9706620278905772 
0.9461909989980765 0.8733133131644362 0.8345559952327588 0.8379287302362515 0.8843473974327531 0.9644764261684313 1.0586752323417503 1.141588945218961 1.190366238891618 1.1930537393783718 1.153057062047735 1.0872990168496703 1.0189496901806434 0.9684355127238263 0.947128975468209 
0.8998457387038827 0.8366246458068901 0.8099364029784382 0.8252844530114742 0.8819651530737185 0.9702667286669281 1.0709349470792544 1.1588038782261507 1.2102714383720676 1.2117628231995794 1.1651603241155009 1.087312634952077 1.0036553670418846 0.9389838492982139 0.9097123837563427 
0.8387162156561138 0.7916239621571994 0.7791757331917792 0.8040962615529054 0.8647607402702017 0.9526444034665745 1.0509889126672336 1.1369817976441579 1.1879392824132058 1.1893948780311892 1.1413171019750536 1.05912623391995 0.9686467128031359 0.8972059514549383 0.8649406771036291 
0.7676738947127021 0.7419043761754099 0.7459090071011539 0.7795695303253444 0.8407792077629105 0.923097148556663 1.0135161348377597 1.0929952563402194 1.1410532043189079 1.1431461172025967 1.0974128248688775 1.0171269391646343 0.9271462852105895 0.8556938770205119 0.8251355016735428 
0.700548264594931 0.6984481008501082 0.7203146733076181 0.7633179514664222 0.8248860805102876 0.9006441122622929 0.9814710629115698 1.052538431144309 1.0963010139515 1.098947998931962 1.0573381938085653 0.9825867761464984 0.8978992007947484 0.8311762585308194 0.8056106947015705 
0.653345492344014 0.6736252002912054 0.7132116282309363 0.7668697934570874 0.8311777039107225 0.9029638794654998 0.976098021773543 1.0394819055095237 1.078659976608276 1.0812335719489945 1.0436059717388706 0.9752489818180169 0.8976167369309923 0.8375627337722189 0.818032342640813 
0.6362942617432714 0.674153753528935 0.7292973466929946 0.7945371817774168 0.8649960841019674 0.9373425840233864 1.00689909781437 1.0651871002484148 1.1005107132733056 1.1023018393646038 1.067311691263075 1.004070737508862 0.9325220119321939 0.8781801918330576 0.8631459476204677 
0.6495722128763918 0.6976397369496831 0.7641013842096566 0.8403712353921979 0.9195579457209142 0.996788811627214 1.0671966633335583 1.123603966854676 1.156442916344695 1.157048565318437 1.1230164194982608 1.0624649059928055 0.9941064705322479 0.9421115594910993 0.9276387390735665 
0.6846751207448937 0.7345320185976295 0.8064666300050716 0.8911000320511463 0.9792631312274068 1.063594821505919 1.137794433858355 1.1948634967702851 1.2266396883670554 1.226084770452518 1.1916610368097103 1.1311889443168623 1.0622373861652612 1.0077382090101707 0.9882006980519162 
0.7296740586890663 0.7736483621207346 0.8446153173237383 0.9330019142112367 1.0275372603045514 1.1181318730979792 1.1965170662200841 1.2552188110098044 1.2868522545511087 1.2854733963643667 1.2499764599977645 1.1875422399152638 1.1143994549166103 1.0523116381296027 1.021611029497789 

0.67197305281339 0.6626941205130955 0.6678634464282497 0.68366110705026 0.7021864453245215 0.713296510969217 0.7089050811842914 0.6876963614512844 0.657190901581658 0.6312002804249389 0.6234394427768937 0.6406938952582583 0.6796098277675103 0.7292209118909515 0.7778239183588425 
0.7736709276315165 0.7445701841039254 0.7244288072242769 0.712049530413794 0.7027827192308079 0.6897958273681247 0.6677571249764388 0.63710308788378 0.6059357734772759 0.5875302111835066 0.594074800762634 0.6299562679192505 0.6887279071033898 0.7560503208943823 0.8173174794999639 
0.8915854023767634 0.8443582144251812 0.7980548053975498 0.7549518898001967 0.7149650425275671 0.6758202646709723 0.6356444982330528 0.5965460629218968 0.5664296599517352 0.556920410688957 0.5777041156022028 0.6302945922937725 0.7052794241999816 0.7854860663559707 0.8540061279165544 
1.0010827908633417 0.9401722389509132 0.872152449454119 0.8030730273624737 0.7376915821949653 0.6782445692312197 0.6257644882179182 0.5830258325589143 0.5565762686889525 0.5555187234311734 0.5868476551408847 0.6498560368403438 0.7334731328065113 0.819177859067699 0.8888484407114083 
1.079655136307121 1.0103054966101532 0.928567128559572 0.8439981369276249 0.7653997836059873 0.6981761579913944 0.6445336478714133 0.6061249772572112 0.5867475766139657 0.5924245669444975 0.6280015958834092 0.6921415261002012 0.7743437714311583 0.8569366623068683 0.9220545815012701 
1.116196666416276 1.0425008356620988 0.955948526909033 0.868884183593428 0.7925459269239935 0.7332763092896494 0.6920196351267515 0.6671586167379707 0.658358277979377 0.6682995793842971 0.7006594275069226 0.7555105456026974 0.8255341997089388 0.8964006957210839 0.952179253369497 
1.1141761090963644 1.0381458018844436 0.9542689209419108 0.8766700593939781 0.8170835480934889 0.7803549251941134 0.7637507352528191 0.760460448301587 0.7649385616745258 0.7764828576036287 0.7986069139154343 0.8346568899236894 0.8828347070649599 0.9344371846586146 0.9771351364431684 
1.0869030370221475 1.008978500240017 0.9327253621373127 0.8729418761271438 0.8401081010619437 0.8356586469301855 0.8515299868132834 0.8745922477668929 0.8935844242831043 0.9045226384431877 0.9114095856052397 0.9219951694557497 0.9414868852487068 0.9684230978826007 0.9954855242820786 
1.0481652266052288 0.9687604502973148 0.9027513364523297 0.8645499431646726 0.8622311757934075 0.8929671840062786 0.9429976760988834 0.9929247966597465 1.0260112305036608 1.0351924026775676 1.025046802119245 1.0078124665813721 0.9959932996317645 0.9960071545657803 1.0064672262433536 
1.0044232413720087 0.9255568032660517 0.8711185939634759 0.854209603523197 0.880127792387538 0.9421808751523214 1.0219662173730124 1.095114108531646 1.1404145309075653 1.148031063904122 1.1226573110258289 1.0800782156454751 1.0391787783827096 1.013834183469851 1.0088523972811059 
0.9534790229032369 0.8795568849675033 0.8378131391510442 0.8392823680728562 0.8868104610770545 0.9712768705484829 1.0718223304760897 1.1613758808670398 1.2158775067661631 1.2231808990600856 1.187315093335219 1.1259735844876868 1.0626017926786964 1.017202299724628 1.0003252296198255 
0.8899758855036763 0.827302565481848 0.7997549433406826 0.815718723888193 0.8763208374352848 0.971963743215993 1.0820318350335572 1.1794687461548654 1.2393234725373299 1.247798139226639 1.2074988453841664 1.1362029894994299 1.059695155245157 1.002205074166823 0.9789378136655975 
0.8134055563608747 0.7686609119580865 0.7571212760793938 0.7841126347799435 0.8498087066321027 0.9459510681697335 1.0546382027409145 1.1513560133761205 1.2122010909560172 1.2225744649756467 1.1832379202957108 1.1105548744207283 1.0305726220016873 0.9697048817553329 0.9463093329273055 
0.7327051749053213 0.7110615978385827 0.7171386664415252 0.7529758143535014 0.8182667619172991 0.9072122223907394 1.0062248290551707 1.09511532571379 1.1525975952207004 1.1642317014721044 1.1290184773790815 1.0610815687953201 0.9852224940312039 0.9282581657046614 0.9100988790699771 
0.6640330465386076 0.6676272919968146 0.6920760164029058 0.736118137559573 0.7989821875217987 0.8774557892659072 0.9626469397379422 1.0393983853942648 1.0899815553351138 1.1010256716949458 1.0703151451977355 1.0096568236827177 0.9418569738569549 0.8929031955960667 0.8829030422844193 
0.6230695656220518 0.6502738477711698 0.6924293626821442 0.7452065032203156 0.8069634917112689 0.8762572552901894 0.9480831380875077 1.0119196368714074 1.053791058062941 1.0620571096212554 1.0340567089697332 0.9797599996419054 0.9199211865771196 0.879123914374667 0.8768410049529514 
0.616868211109244 0.6624604797793736 0.7198664473024207 0.7821819425711981 0.8462822598588927 0.9110805884762051 0.973831906527063 1.0274078073203834 1.0610865481640372 1.0651976899356335 1.0373014223507302 0.9862047399042889 0.9309823617193244 0.8948257154349584 0.8964007550393351 
0.6404378312893519 0.696539462642387 0.7648581296739059 0.8366489437007483 0.906779552162801 0.9730256844773505 1.033021471777681 1.0813861037871004 1.1096564005260623 1.1098704715101673 1.0800798579660276 1.028412254670704 0.9727228160329981 0.9351999081614686 0.9341405514021468 
0.6799693676246606 0.7375294580023418 0.8108594144006155 0.8902755749308243 0.9684630640120193 1.040981151241326 1.1042807727941235 1.1531673002698675 1.1802365321904724 1.1785351130146564 1.1463458795404757 1.0911590603336685 1.0298672044517723 0.9841506521825694 0.972756785101125 
0.7203536273984484 0.7709196486827482 0.8426224958226025 0.9257921257625364 1.0112354667188912 1.0919425583943903 1.1623346967702801 1.2163164186870823 1.2464538929604552 1.2458693384943955 1.2123743797322497 1.1523935122133913 1.0817693882706876 1.0220238944562035 0.9932089061935812 

0.6798639251691808 0.6938945220240283 0.7149487554776105 0.7390504920171157 0.7593344835598769 0.7676574625189324 0.7584956650828992 0.73300072670493 0.7002714176590631 0.6742142312259772 0.667134882006986 0.6836029505432462 0.7184129476055294 0.760197473993855 0.7987279056620323 
0.7720824722711782 0.7653002999906392 0.7608479730999301 0.7577484645468783 0.7524631322663448 0.7398786360596176 0.7166780518586665 0.6851530599622847 0.6545374212879845 0.6380793589098063 0.6467854401089959 0.6832905440746624 0.7397998565318803 0.8019080402484243 0.8564940352689223 
0.8807306500913135 0.853563063349203 0.8217181380637968 0.7879739368086051 0.7533061384739467 0.7167730993011266 0.6779270129291083 0.6401665150993786 0.6122144353630877 0.60573218678732 0.6296318997641749 0.6842555300125054 0.7593537549963185 0.8379153069858157 0.9043386079942052 
0.9855869077868329 0.9411143232396154 0.884897020879227 0.8237488187248069 0.7634256443620161 0.7071304133686974 0.656797649796648 0.6160358965354614 0.5920272562768069 0.5940901199649263 0.6289164083725255 0.6951880940171666 0.7814038802248003 0.8692709629850838 0.9416406332486651 
1.0665122656636163 1.0089359532294349 0.9349998212484062 0.8553263415818538 0.7797341201543418 0.7143517141448937 0.6619159947067694 0.6246086485363963 0.6067932139201885 0.614933364661309 0.6539981023771754 0.7224641876736266 0.8096099102833471 0.8978597865698126 0.9698619245301147 