# vtk DataFile Version 3.0
vtk output
ASCII
DATASET STRUCTURED_POINTS
DIMENSIONS 15 20 65
SPACING 1 1 1
ORIGIN 0 0 0
POINT_DATA 19500
SCALARS Image float 1
LOOKUP_TABLE default
1.1976942026648416 1.1241976433310383 1.046999232053837 0.9669965984637454 0.8887812571895938 0.8196788631109018 0.7669446247626543 0.7344605964965364 0.7205942832038231 0.7183726321705949 0.7180448642855214 0.7109730068386559 0.6931467764732159 0.6667771722883643 0.639302606023583 
1.2567088496269876 1.1805872687605343 1.0990572994954917 1.013193979723412 0.9283831318045868 0.8531801787607607 0.7961496122742322 0.7621383838044108 0.7497764233575729 0.7514767430044614 0.7560734312415425 0.753026204098354 0.7364047996226075 0.706975714945631 0.6715844748709797 
1.3052029755608507 1.225155825596624 1.137786428046521 1.0448236985702555 0.9528994568303512 0.872084334807982 0.8122803389441927 0.779059210190779 0.7708766998046264 0.7790297172867456 0.7905166608364733 0.7926718459440399 0.7776674206857576 0.7450598598340967 0.7014472999976865 
1.3387337491362077 1.253622006612264 1.1593060690396064 1.0586213560303457 0.9597810471791723 0.8744824979724167 0.8138180496105506 0.7837264743764647 0.78203583710328 0.7985209941549622 0.8181106029879175 0.8260159690541784 0.8127345751305757 0.7769663789721502 0.7254134945352544 
1.3561247373873844 1.2653655106210255 1.1637631172519822 1.0556089564311537 0.9508579085557309 0.8627510004696434 0.8032715670153485 0.7783095740164314 0.7846724333249866 0.8103752281359026 0.8382752698815332 0.8516971555335717 0.8398593237708555 0.8010267802030071 0.7423091272492579 
1.359529942654206 1.2633914838604334 1.1551603104394697 1.0407659563065208 0.9318582305272364 0.8429538994918871 0.7865237975432513 0.7680060683901165 0.7829265185761595 0.8175210832056229 0.8528208876350475 0.870710202400463 0.8596450578209339 0.8178849484106078 0.7531557628551856 
1.353852292606347 1.2535971968055395 1.1404464789515214 1.0219433109470444 0.9111777777381829 0.8235278483285896 0.7715093134275852 0.7597893248695685 0.7825373260275218 0.8244292369369273 0.8651420792861859 0.8857235219562821 0.8744370205333208 0.8299135960398215 0.7605767127211573 
1.3456695573143325 1.2435223448341333 1.1280821728244899 1.0082659515312968 0.898171827987553 0.813538405472644 0.7665165734641942 0.7608268869721616 0.7894218741653546 0.8358616373395851 0.8791166294894892 0.9000850349038733 0.8873869919627466 0.8402985397179583 0.7678810129020559 
1.3419071896670705 1.240854761613151 1.126385968801884 1.0083589610492134 0.9013264871519597 0.8208742391159751 0.7784777756895471 0.7769175671183696 0.8082796741584399 0.8556319102671889 0.8979852852613828 0.916774699520914 0.9014370018529609 0.8520290994936762 0.7780577758161508 
1.3485300001170337 1.2519935383464018 1.1419921526297832 1.028750643850554 0.9266748842338405 0.8507448975842253 0.8116007246580613 0.8112820280161291 0.8415350125770549 0.8856661502843775 0.9234843016527224 0.9375640415397163 0.9184764446905019 0.867045774052726 0.7929283829815205 
1.3694998572782233 1.280938953477849 1.1787076982586786 1.0727511054106804 0.9767572378592027 0.9047711321021464 0.8666137515150163 0.863956217319302 0.888845520796619 0.9255770582697184 0.9554347997773703 0.9625842901882794 0.9388757372314794 0.8857503970006582 0.8126611115843717 
1.4061738321163202 1.3286938628120084 1.2369580187614462 1.1399924315716738 1.0502986583636449 0.9808224114207189 0.940755919849806 0.9318989730955082 0.9472730626858004 0.972840194790153 0.9918784740758609 0.9903992012655005 0.9615012452626376 0.9069904256948742 0.8357623546427297 
1.4572149025614434 1.3932451716733074 1.3138803196479598 1.226672136954103 1.142623140921891 1.0735942610791191 1.0284813274183184 1.0097652014626213 1.0120602518417305 1.0235174362406978 1.029714456491607 1.0185513090780471 0.9841940330472624 0.9285100230000221 0.8595417368597241 
1.5189789745448632 1.470072885915827 1.4039895258668755 1.3263968421519485 1.2466702398398053 1.175763487857707 1.1226938536254698 1.091149458362553 1.0778173347558613 1.0733423242000955 1.0656684932548401 1.0444311224241436 1.0045778940559726 0.9477441506189069 0.8809323917617459 
1.5862506797978426 1.5530336469032107 1.500232780558778 1.4314083856741728 1.3543641874502073 1.2794447895905576 1.216219780090841 1.1700034709286662 1.13983062954778 1.1188946235888624 1.097341749752652 1.0662356823168548 1.0209776906482615 0.962745325690485 0.8974595100242911 
1.653144080458619 1.6354052850145995 1.595185754372574 1.5339123385062732 1.4580269277521274 1.3776208824193397 1.3031829411011957 1.241896829005579 1.1951759650901486 1.1585670876536427 1.1240621937658641 1.0837556099915564 1.0331972382934378 0.9729963589014747 0.9081106229790742 
1.7139722524975887 1.710868692060005 1.6821378440527144 1.6272295964612153 1.5515366499017271 1.4652391920243435 1.3799784177610843 1.3048296677785594 1.243364763741587 1.1930720374652855 1.1473027526906017 1.0987651333821296 1.0429345978497309 0.979885010553062 0.9138794041355136 
1.763920842453698 1.7742418159118825 1.7558615757857234 1.7065519922954269 1.6310070291423755 1.539754788288783 1.4456381690156044 1.359410406593144 1.286356791471817 1.2253393171426432 1.1705285141199715 1.1148800293313048 1.0536955054945394 0.9866931711324626 0.917827181628301 
1.7994249315106252 1.8218560521788096 1.8129504745224216 1.769186801413348 1.6948812884867759 1.6010311835523865 1.5015232403551475 1.4083573010740356 1.3279187220884596 1.2597975947312872 1.198468408505636 1.1368737109224636 1.0701840571808736 0.9980665298862731 0.9246165665344902 
1.8182292080093254 1.8515587024987084 1.8517176189134523 1.8142981023467706 1.7434721489306577 1.6506582996691481 1.5504310923402946 1.4554376940087548 1.3724595941822963 1.3011767232547622 1.235945249994527 1.169573464271509 1.0972766937144387 1.0190548990313668 0.9395946559033841 

1.2241355306788058 1.1473727503342137 1.0682814674521524 0.9877346147249723 0.9102305421527012 0.8429474660557326 0.7929427815453243 0.7638428202865003 0.7536881211333161 0.7550996694817984 0.7578524649161235 0.75280394736879 0.7354736051922051 0.7077173084858024 0.6768115028859308 
1.2833113212056615 1.205599390641456 1.1233594637126751 1.037481613471141 0.9531822849594261 0.8789126019477315 0.8232157749191039 0.7909783397204961 0.7808739436009731 0.7852912623058638 0.7929111369306815 0.7928866719980768 0.7788537782726176 0.7510925422520024 0.716014500617341 
1.3297193873223296 1.2500556532182672 1.163449559663539 1.071249229448473 0.9798232910374985 0.899181735017413 0.8393951453609428 0.8063879527177938 0.7990445148086527 0.8090248285117074 0.8234924636981767 0.8296668355867558 0.819319857658595 0.7913975482780917 0.7518123070043427 
1.359852595557137 1.2773320489979354 1.185512044167384 1.0866285961546764 0.9885257934875287 0.9028792604455488 0.8411360476410578 0.8098917630051171 0.8077705373710035 0.8252734068659126 0.8477877066001539 0.860585185197274 0.853797587402735 0.825413486399024 0.7812416286937325 
1.3737015104584782 1.287891134515995 1.190728336666247 1.085677068282061 0.982209003903638 0.8935694090849243 0.8322589043638549 0.8050914945792276 0.8099902206288994 0.836008500744038 0.866713487877855 0.8856438632898398 0.8816943820835841 0.8523566555369646 0.8037038555353674 
1.3745889138476217 1.2858105748440427 1.184112870227188 1.0743726707299133 0.9676359261433004 0.8784264872221146 0.8198512674790209 0.7984768576416451 0.8111906396702268 0.8455079847875978 0.8833678645423245 0.9070000918481969 0.9045948262236896 0.8736284117841661 0.8207261833684711 
1.3683431218605384 1.2778142923440563 1.1733737104634994 1.0612993358612033 0.9539496931030381 0.8666788731801505 0.8126958204010143 0.7979172763063042 0.8180286340314306 0.8591437310157434 0.901988748755591 0.9280698012332673 0.925465989478685 0.8920763110401531 0.8352447677641116 
1.3620150822499704 1.271823279012748 1.1672842821220963 1.0558565228480576 0.9507697092343514 0.867664443712227 0.8193670955332054 0.8108732886142495 0.8367061557594471 0.8819374583088933 0.9266747928150052 0.9523754490532513 0.9475862147488079 0.9109652959741231 0.8505979889352476 
1.3624260180263308 1.2753435055610796 1.1739160436307645 1.0663725291671993 0.9662484757608266 0.8889081497431364 0.8464041908823575 0.8427193590267442 0.8714677004670169 0.9172246435588797 0.9601818960814904 0.9824290415643425 0.9734720140558764 0.9329219254285501 0.8694833180373197 
1.3748491916509753 1.2940234879347514 1.19909276523076 1.0985045138133396 1.0054845676303672 0.9346174763376832 0.8969436421811078 0.8955416934289083 0.9235583855424706 0.965740448839124 1.0030889376349383 1.0189296845613587 1.0040736761453313 0.9591166890818766 0.893137219496683 
1.402081143373199 1.3306587083382033 1.2453621378304338 1.1542319315236935 1.0695991301599719 1.004893165968556 0.9700913792866179 0.9676671927280641 0.9908765075163518 1.0253438192322788 1.0535381348112183 1.060477155445543 1.0384418092146102 0.988888589046486 0.92094211361487 
1.4440585377481217 1.3848096343128842 1.3116568715336534 1.231612757967255 1.1556334161681576 1.0957934065174828 1.0611489135380285 1.0540166633070567 1.068397100156922 1.0914478852605005 1.1076183873813088 1.1038767408054442 1.073950048575394 1.0199063828502477 0.9505601607096489 
1.4980509133236795 1.4530611128023287 1.3936642485372364 1.3253050496080445 1.2572469738887833 1.200204987218712 1.1626226611998316 1.1471927810990512 1.1492680863559355 1.1580598669607798 1.1603053785658535 1.144965132153923 1.107020833586943 1.048827770477406 0.9785646424655319 
1.5593360587882352 1.5298149113737805 1.4847744613675267 1.427696777241699 1.366028965718702 1.309304904713724 1.2657772626281147 1.2390513039866415 1.226327134330591 1.2191892733930807 1.2067357484707242 1.179756521422966 1.1341740552890864 1.0722927000536524 1.0014162240558229 
1.6221702642014395 1.6084034187320597 1.5773657302868402 1.5303683939754769 1.4731142243044206 1.4142768474590626 1.362380199850945 1.3223982446874882 1.2936897440275588 1.2702924608332227 1.2435062539337394 1.2056231439335265 1.15313276566263 1.087999625740831 1.01654265135717 
1.6808192885191215 1.6822617846578165 1.6641306335696133 1.6255590401934503 1.5707455539271211 1.5079034785446495 1.4462499986521693 1.3924293000064956 1.3480395448739353 1.3094058588853454 1.2696732914581963 1.2222060860625228 1.163696923600635 1.0955851946788808 1.0232479206812006 
1.7304248622927791 1.7459061908358433 1.739162002120859 1.7073275244303803 1.6534530047041782 1.5856952316515276 1.5142705281567772 1.447586434161987 1.389315160297989 1.3376839821648585 1.2871883287367178 1.2318057786185324 1.1681419143532592 1.0970661075717345 1.023209191103573 
1.76754053190316 1.7955317421029675 1.798591708736633 1.7721857923078002 1.7186205369913243 1.6463290152167742 1.5666574827862023 1.4896371332470775 1.4206207962044246 1.3591884503199325 1.3006282932638804 1.2391162401003588 1.1710039226812001 1.0966989580773734 1.0204102110987514 
1.7902633908174264 1.8291469197952792 1.8406922035596964 1.8191138998888041 1.7663568092939617 1.6913298139580202 1.6064323662621902 1.5229557777349392 1.4473610455388255 1.3799423923570124 1.3162398751623865 1.250317618964948 1.1782558187264658 1.100248098309053 1.0204886888690934 
1.797991719286535 1.846277379160378 1.8654808865015733 1.8490109704455158 1.7987464982023962 1.7240990896526798 1.6382369360065603 1.5531657640399485 1.4757763332651606 1.4064338007506465 1.340477489445517 1.2716941314349146 1.1960229848221444 1.1137925025852518 1.0296126645575767 

1.2505255759903857 1.1728464199274349 1.0939317690218822 1.0145462692403449 0.939077922946105 0.8746077539670494 0.8281030521574329 0.8030809883989601 0.7974165522149509 0.8034751523168665 0.810672433857337 0.8094203399122017 0.7947577200100443 0.76809998471785 0.7364054249139397 
1.3125496032807038 1.235603102573875 1.1546661897746415 1.070358420927592 0.9877042149519762 0.9150933054727697 0.8611491580021936 0.8309431242620514 0.8233608018995543 0.8309338411420917 0.8423317057111873 0.8464948942056721 0.8366540176213545 0.8125556108611275 0.7800538492705412 
1.3600219092659818 1.2830452550626807 1.1991120655112066 1.1091023541279612 1.0190922695151525 0.9390648175582547 0.8793524545078727 0.8463743294727603 0.8396168253987567 0.8512856780295275 0.8688766994316072 0.8796211768657566 0.8749559202325569 0.8532055000892967 0.8195049698822471 
1.3902253731544403 1.312476535325867 1.2249021862363945 1.1290508081622601 1.0323615536706 0.9465122638185286 0.8833888927981876 0.8503813267264148 0.8470861462189551 0.8649251750538162 0.889932027554165 0.9075927380131267 0.9077690167818235 0.8877578725861635 0.8524113175217457 
1.4040767284523143 1.3251917621453462 1.2339955622619292 1.133037542254896 1.0312652010187735 0.9419432364920229 0.8781647843085377 0.8477995080717348 0.8500622459250221 0.8752458550982801 0.9078278464066569 0.9317328162124029 0.9356487601274872 0.9163363757113613 0.8787917379091571 
1.4057525210464354 1.3260227538762264 1.2320997919827303 1.1277245412045014 1.0232956649493237 0.9333526452112575 0.8717055027909962 0.846173604206134 0.8551774592763081 0.8877119174068243 0.9268269457388175 0.9552758194816827 0.9611090531358889 0.9410747997143707 0.9006729480131265 
1.4016555669424378 1.3221747790024625 1.227344917683638 1.1221027189494857 1.0180328709831161 0.9304703325736651 0.8733769815156758 0.8540341655768268 0.8698044802938225 0.9084292922084105 0.9518774292418007 0.9822836776971864 0.9876648861486034 0.9652442432557259 0.92126959582996 
1.3989723561241711 1.3216282313416237 1.2285122968113131 1.1255597530693922 1.0250948619339304 0.9426642586302715 0.8918230500196863 0.8789448805708082 0.900267659917437 0.9425434158619558 0.9871873797370578 1.0163640290839142 1.0186510972789786 0.9921352431949435 0.9439097557652276 
1.4041467636665188 1.3314595033368595 1.2432034278953963 1.145928746657424 1.0521261288719472 0.9769445830612682 0.933060758579596 0.9257471351151683 0.9502654140187524 0.9928353445817225 1.0349636682774235 1.0595068252360602 1.056113684426596 1.023975821334073 0.9709735856845969 
1.4215962290720858 1.3564349700955 1.2763300888538063 1.1879213755517166 1.103240073686162 1.0364857753795262 0.9991393747284492 0.995386473865145 1.0198621746446168 1.0588481214841012 1.094624062556695 1.1113316267512277 1.1000547116827692 1.0611587211449156 1.00311094080869 
1.4529261695634426 1.3981555369934355 1.3292220786308833 1.2522534462108763 1.1782249634961324 1.1199666827132226 1.0876446083059474 1.0845791814903212 1.105284671760657 1.1367590133519272 1.1626859628355315 1.1689437716217492 1.1482290248921152 1.101977921912745 1.0389382912395344 
1.4967754394772341 1.4548961111085488 1.3995035422210882 1.3356123349880042 1.2726520508858012 1.2218485148327978 1.1921449849541217 1.18639334658377 1.1995794693836186 1.2200453605551718 1.2333793860235334 1.2274543330707783 1.1965589959961829 1.1429519735939255 1.0753006020695284 
1.5492797770685791 1.5221262292028768 1.481717124203727 1.4314307182491626 1.3788284344342632 1.3335076820278138 1.303472576949082 1.2916177147095969 1.2939956887755262 1.300809585333384 1.299861207605856 1.28105891474154 1.2400826218367014 1.179667972242211 1.108046194349562 
1.6050049990414665 1.5935509221457775 1.5685156078222153 1.5312603604601858 1.4873587753331456 1.4449587086471816 1.411550294416164 1.3906176560071284 1.3797917235817097 1.3714735664658084 1.3557613166929956 1.3244310293840638 1.2742158799111931 1.2079488702507208 1.1331343110373573 
1.6581070859952818 1.6624069541071336 1.652127893588982 1.626420289745146 1.5889575529303221 1.54678126784346 1.5073618743062016 1.4752691759741285 1.450064758455095 1.4264599196814909 1.3967036284030323 1.354100257598966 1.2960245386719098 1.225059781502642 1.1478069298228162 
1.7034417927416508 1.722710222508994 1.7257632870948703 1.7095499940556165 1.6761125002708646 1.6318302627837693 1.584633638444441 1.5405432578282459 1.501190177446381 1.4634699398831343 1.4214374470717486 1.3694749856888082 1.3051851283463196 1.2306477314464108 1.1515302067076827 
1.7373771906952156 1.770181436969334 1.7846519351095602 1.7757374962950125 1.744247228448689 1.6963651951961545 1.6408644583337653 1.58538838638479 1.533538189707076 1.4840484738762365 1.4322911568378744 1.3732387087800153 1.3043750120129896 1.2271605939986405 1.1464545170804965 
1.7581487550150379 1.8026691748830581 1.8265193873325178 1.8230030019303114 1.7921543202584727 1.74037090100768 1.6774868916708714 1.6127125814707424 1.5512905030640867 1.4932784003902926 1.4348052367039443 1.3709837986165132 1.2989554149205462 1.2196045452844229 1.1372468384269947 
1.76571613188288 1.8200186679884593 1.8514347349798155 1.8520744441461203 1.8216404725211786 1.767025226627747 1.69913566631916 1.628464243713133 1.5613771230244198 1.4986389493654446 1.4365839080684695 1.3701180097738623 1.2959717794086503 1.2146502673084911 1.1302921200358003 
1.7612046153873235 1.8234702081631053 1.8611212107905626 1.8655557069995279 1.8365040366002763 1.781459555363782 1.712197151596314 1.6400104061398344 1.5717493606777868 1.5082508656114957 1.4455840862046214 1.3782486270864602 1.302656795750441 1.2192521863614245 1.1324088903126772 

1.2745244184082072 1.1983699349223484 1.1217819360468142 1.0453401052164337 0.9733022989864649 0.9126914243179339 0.8704762932767021 0.8501958491415549 0.8497114997164135 0.8612848692767924 0.874101856902029 0.8782157341991192 0.8682118955950685 0.8450221264456206 0.8151707399898399 
1.3418934897932453 1.268082124113652 1.1905110515077526 1.1094531440273308 1.029712297877913 0.9596393040122563 0.9080084599871573 0.8801864042880677 0.8754081650468889 0.8864961764724433 0.9022473110121073 0.9114988582356659 0.9071371270769415 0.8883730296879303 0.860431075747908 
1.393413388574014 1.3213429644611465 1.2419849341645386 1.1556784491785117 1.068171878591325 0.9894282261850751 0.930092017075947 0.8971673457821269 0.8908651807572695 0.9040793898396 0.9247832417648348 0.9403477343809434 0.9419642149334243 0.9273693873068922 0.900887529102612 
1.4269546725392352 1.3559561217622713 1.2742853562749943 1.1827375328768368 1.088308162926813 1.0026720794010215 0.9381868418655004 0.9031086030791058 0.8981144759789256 0.9156822844778009 0.9426392487081021 0.9648252631232432 0.9719419425301417 0.9606552244014647 0.9348581820489869 
1.444065792281859 1.3737474857714669 1.2898421321115583 1.1939299595711974 1.0943969779400695 1.0045149658769748 0.9379894330351185 0.9038026775611413 0.9025556913555476 0.9259062880297402 0.9593857415217237 0.987446771103958 0.9986898128371899 0.989220696143861 0.962977476217322 
1.4494223032558087 1.3799486294908951 1.29470368860063 1.1962536069120788 1.0943197117032213 1.0034440102400877 0.9381523840882185 0.907562679565742 0.9117096588475834 0.9411799318866028 0.9802663087888341 1.0123793822324554 1.0255455811198742 1.015863464250981 0.9877365296080347 
1.449634276441246 1.3818887063487941 1.2970762777176916 1.198774431957593 1.0977776626836753 1.0093948787483584 0.9483525543040724 0.9233346085937063 0.9334485112593712 0.9681575877415439 1.0107847708994142 1.0442069755296641 1.0564770485401644 1.0442100538281442 1.0125851109801716 
1.451699267254976 1.3873033235862842 1.3054669101932683 1.2106094088768096 1.1141533033520092 1.031557232844786 0.9771210939691873 0.9586294841284696 0.9740881196442311 1.0120003917486753 1.0551708971146805 1.0865523102642856 1.0948210747819886 1.0775363982393613 1.0408145206002342 
1.4614545532129815 1.402640265135639 1.3268391056857842 1.2389595926049277 1.1504767947510794 1.0763489961449864 1.029901548514268 1.0177260171989158 1.0367679972225954 1.074933459246059 1.115087233063195 1.1408903088886184 1.1421603574660923 1.1176792241845797 1.0744964335935157 
1.482367557664718 1.4317273641712762 1.3651735238770195 1.2876076996829182 1.209925492506505 1.1459886329058286 1.1077543927920908 1.1005412361870155 1.1204892303906333 1.1554220837713136 1.1888950669672989 1.2058514554520223 1.1976235262587398 1.164314084964182 1.113744331012665 
1.5149131984244972 1.4750729793640343 1.4207233569307287 1.356182767040433 1.2911616901441785 1.2379623759113767 1.2069872478679384 1.202425045803532 1.2200424179452876 1.2481787066154348 1.2716778504028516 1.2772074671135467 1.2578001524699993 1.2147934461992485 1.1564915489654233 
1.5566440313710892 1.5299179359677626 1.4900917451044235 1.440319555187715 1.3886272249812244 1.3454876275380547 1.3197896554863782 1.3149351026028349 1.3268641902807166 1.3450295698289816 1.356050666662656 1.3485755408043474 1.3173194770747232 1.2646069062616712 1.1988586409759878 
1.6028975761942204 1.590985181428655 1.5670731007350187 1.5326421495050937 1.4937044712211098 1.4588576395922508 1.4357333060485988 1.4274340000104515 1.4306547670182663 1.4364752467445179 1.4336022275893305 1.4127074927617382 1.3699822950526301 1.3083752169001612 1.2360402214564554 
1.6479425281343332 1.6517193479385317 1.644034022756053 1.6243239177369864 1.5964678279928788 1.567363466656618 1.543810808187121 1.5291687715780906 1.5214160018932268 1.5136165145205833 1.4966629565912881 1.463085300828931 1.4101966854655554 1.341155510841193 1.2635111735900422 
1.6862737931063538 1.7057072614898625 1.7134991223713958 1.7068583835937852 1.687628459950043 1.6613683288129715 1.634569722105495 1.611383669608005 1.5914686767388808 1.5700239214291072 1.5400050101961913 1.495459539025446 1.4343835839130978 1.3597494925603453 1.2782655586635658 
1.7137450264155638 1.7479436263806187 1.7695758093227885 1.7736424206220138 1.7602434540631928 1.7340828722985666 1.7018792410764272 1.6690058014620712 1.637003140458603 1.6031286343985611 1.5620796415488174 1.5089636802542579 1.4420092737947643 1.3636911793845687 1.2797807466697142 
1.7282794813981113 1.7756575887840267 1.80890477334553 1.8210298743233304 1.8108241813444517 1.782662391845835 1.7439488095946079 1.7015328354412635 1.6588113825665842 1.6148061085365368 1.5654867780689963 1.50651868866036 1.4359733167818298 1.3556519419505557 1.270451206249319 
1.7300113755558115 1.7885315983333774 1.830945316722571 1.8486455120017249 1.839621787750168 1.8084019817499306 1.7633830353835234 1.7129236645765396 1.66202201243085 1.6109939321958757 1.5565333266033803 1.494392676471659 1.4222182201477023 1.3411261370986307 1.2553510340919636 
1.7208532030359116 1.7882955305602657 1.837567176958411 1.858924808799682 1.8500573006379226 1.8160079424984157 1.7662691644102781 1.7105095047085812 1.6548752725057154 1.6003946664136635 1.5439360161333577 1.480967368945615 1.4086014307790609 1.3274231978230073 1.2413366074055676 
1.7036252706120956 1.777830439545006 1.8320849473643674 1.8560240633955658 1.847456985031151 1.8121286239299996 1.7605056623256927 1.7031572556013859 1.646786294309332 1.5925179613041807 1.5369177804438054 1.4749452497494429 1.4032420227209337 1.3221549485421762 1.2356561678944353 

1.2905700423689241 1.2183585134838828 1.1462576643479556 1.0745866041363512 1.0074401557505777 0.9517969976776748 0.9146869878018815 0.8997698917957898 0.9050213730661218 0.9227410177061685 0.9420224702507394 0.9526736042791398 0.9488959342579594 0.9311474928642441 0.9054595416661151 
1.365068701970813 1.2966515981591122 1.2244850254580268 1.148424146682184 1.0730093550986033 1.0065423185384912 0.9579733464158307 0.9330248375575272 0.9313734590252771 0.9462483603962991 0.9667005208566076 0.9815841447215405 0.9835350276695822 0.9712770316832869 0.9493944249390318 
1.422953566511839 1.3577995671439829 1.2848418609066492 1.2038173738061504 1.1200982715770604 1.0435975047387405 0.9852661623595661 0.9527180222904194 0.9469467554705246 0.9616241356244322 0.9853141114602536 1.0056492391806149 1.013686247078037 1.0066530153575424 0.9880930383462027 
1.4624647175838743 1.3998815249923129 1.325625125575764 1.2396910869558515 1.1485836191695404 1.0639313618165631 0.9985340025846773 0.9615087722749756 0.9546411754917459 0.9715294984044103 0.999891520668837 1.0260380920443462 1.039629158668966 1.0367979753817307 1.020538202575025 
1.48547447100586 1.4249441334521284 1.3494213289058101 1.2594916536762346 1.1629402540230291 1.0729984845527958 1.0039398730700442 0.9658322099198425 0.960665576212856 0.9815033066822367 1.0150079175792541 1.046264876602999 1.0639017907623027 1.0634741302217812 1.0479377588208627 
1.4967984044116087 1.4382638001096404 1.3622690395595445 1.2702066330767097 1.1710978452621625 1.079445519577007 1.0104426685072014 0.9744656222682656 0.9731473311473678 0.9986842227842436 1.0366661992751154 1.0712447238657679 1.0905208733452332 1.090039980802041 1.073186998325502 
1.5028968939073777 1.4469491679605362 1.372120366944496 1.2806619534490138 1.1825806806928374 1.0931340173936106 1.0277707002525887 0.9965334763232753 1.0002452597313498 1.0300877945205693 1.0707649033947395 1.1059492163902642 1.1238000007125648 1.1203983644744446 1.0999204791361312 
1.5102815074305371 1.4582159724463142 1.386957229627921 1.2994791698931034 1.2063380425681367 1.1229051603268632 1.064199135234099 1.039376085106444 1.0481713624239704 1.0808147791279374 1.1214952084193115 1.1539687439159407 1.167041449961256 1.157784475745952 1.1313780956111814 
1.52399708551687 1.4777284634519545 1.4129838243782071 1.3331410254174147 1.2487346299405422 1.1745669328170418 1.1246100855429124 1.1067457880406688 1.1195597734997604 1.1525973927709319 1.190040521758081 1.2163245478990916 1.2214183812194026 1.2036888454207397 1.1693609582851905 
1.5465210305134915 1.508373786763089 1.4532877390327492 1.384580202502819 1.3121300544066834 1.249535359526766 1.2092572166778903 1.1977322409096054 1.2125576703145682 1.243029626360331 1.2738987962487904 1.290829834977274 1.2853316219735795 1.2571881024676173 1.2135392863923964 
1.5773145800345327 1.5497259624088566 1.5072465882068333 1.4525822153945938 1.3943427550604186 1.344418528150923 1.3135072090509219 1.306666567664832 1.3208639117180283 1.3456866779308423 1.3670183491918015 1.372183808096879 1.3544238590029845 1.314868095775933 1.2612978289587153 
1.6131027033211698 1.5982909202080862 1.5707822952137498 1.5321074575349374 1.4890967054113822 1.451626359598026 1.4286200403860905 1.4240445050236787 1.4347378165114666 1.451146077444514 1.4607593667566974 1.4528188726359073 1.422285001653485 1.3713880745718883 1.308180255047453 
1.6487872304660653 1.6484422525246143 1.637371620522479 1.6154317081278005 1.5873329397528226 1.560865666538148 1.5434045579291262 1.5382865779229506 1.5427867056351983 1.548721053266258 1.5455046078687267 1.524345837463514 1.4817190257469357 1.4205816291975206 1.3488504022021885 
1.678752045026279 1.6938009273648267 1.6995533654739483 1.693825152933048 1.6790802467676547 1.661188159554892 1.6463946961536444 1.6379676684495648 1.6341640293702837 1.6285504142890486 1.612586933461925 1.579294992737763 1.526302706777091 1.4568557024169357 1.3783588544010015 
1.6982330943805204 1.7287166918290153 1.7505675833079857 1.7593769648429896 1.755461735883944 1.743140972718498 1.7280772723072775 1.7140406447237577 1.700710294968164 1.6835972229516454 1.656114957930673 1.6127676832226054 1.551884102537199 1.4765657944091202 1.3934194765681238 
1.7044187009809924 1.7494952304932392 1.7857429091175536 1.8065501090846214 1.810391832847241 1.8005508420998662 1.7826901502785604 1.7615738191536843 1.7385703946700994 1.7111136046764845 1.6742833863336695 1.623615037647054 1.5576649864039274 1.4790351164687126 1.3933839269517598 
1.6970176981952663 1.7550850627585337 1.8033176375748714 1.833122927403426 1.8415955282818524 1.83155797178707 1.809202777563569 1.7806222286122328 1.7489250246225665 1.7132326805372529 1.6698532757808167 1.614850494805785 1.5465904837455842 1.4669530491295246 1.380659199537754 
1.678166300934643 1.7470740570413117 1.804520961765974 1.8403225146440216 1.8507400539254308 1.8386846114862396 1.811269454823762 1.7760371441055707 1.7376595680478824 1.6965302230972252 1.6496601814273437 1.5931631593205111 1.52491559620301 1.4460207943635157 1.3604330522595562 
1.651707316358003 1.7290146734477116 1.7929193058685708 1.83214514895757 1.8426723112254755 1.8279386340559842 1.796170134266394 1.756247114248155 1.7140215444979785 1.6706197286068218 1.6232182841061866 1.5675956349308708 1.5010006641992906 1.423880903404518 1.339728703181037 
1.6220287948640562 1.7052596913376008 1.7732072359712245 1.8140473046532368 1.8239574046181657 1.8071660870925093 1.7729748305310373 1.7312674400545855 1.6885381223823015 1.6460571295525575 1.6006901876754194 1.547639411059519 1.4835654339035869 1.408534405753477 1.3259679396520174 

1.2919557866933467 1.2259583019250506 1.160428347345917 1.0953454292582285 1.0345876243074237 0.9850677870653455 0.9538922819203745 0.9448962471279985 0.9562610770185607 0.9804452146198561 1.0065870612017265 1.0243838442042719 1.0277644109352142 1.0167800025227725 0.9969755845532438 
1.3742208541686218 1.3132217879550776 1.2483876904235909 1.1790869553344385 1.1095333712394186 1.0479290798055891 1.003371217620762 0.9819386745662393 0.9837867548554757 1.0026258432959225 1.0278671569736537 1.0485059639231689 1.0570499737254995 1.0518343497704754 1.03685726811592 
1.439707184382323 1.3831575768882454 1.3182730351391792 1.2441356156273748 1.1656755208174405 1.0926832153046924 1.0363489988409154 1.0048488571585685 0.9999456661123508 1.0161187617273841 1.0425963942670315 1.067381206068465 1.0815209087222035 1.0818542699604663 1.071235077392818 
1.4868335213190984 1.4339290590473048 1.3683989672282513 1.2894094003557575 1.2029130108753368 1.1204073183580037 1.0550387433704294 1.0166994494053003 1.0082268595726744 1.0243286329293333 1.0536539291441884 1.0830724300095897 1.1023219295715512 1.1071318840715856 1.099711293726636 
1.5175164043204412 1.467526684527876 1.4012304720184279 1.3182179958284639 1.225628064396577 1.1365658929247235 1.0657625165767919 1.0242588405366129 1.0153446114331013 1.0334427180851653 1.0663554827878752 1.0998632664199928 1.1227242298455025 1.1300680128146743 1.12399170167728 