# vtk DataFile Version 3.0
vtk output
ASCII
DATASET STRUCTURED_POINTS
DIMENSIONS 15 20 65
SPACING 1 1 1
ORIGIN 0 0 0
POINT_DATA 19500
SCALARS Image float 1
LOOKUP_TABLE default
0.8098052963142125 0.8799438172436364 1.021650795449561 1.2233952523782547 1.4079758651891652 1.4677117265278836 1.3506619066004668 1.120617116833949 0.9220147260102053 0.8684044861299179 0.953618847814271 1.069751982388409 1.1139779875543083 1.0798989719443757 1.047728294953957 
0.8570746522558661 0.9417437613642405 1.0924079232418267 1.274451387512781 1.419419715232023 1.4476143022391037 1.3254000289862926 1.1110248850545403 0.9318763468643435 0.894283336832662 1.000296420252222 1.1509775652695002 1.236460933600401 1.2274247927214947 1.181934092698108 
0.9041164948774076 0.969781962952467 1.0981000184383927 1.241781912656411 1.3485631827119002 1.3682881730789882 1.278487679404885 1.1170806954616426 0.9792225131821992 0.9581178527847283 1.0713843432993384 1.2432797927145356 1.3659817051598595 1.3842158358471286 1.3233739784280116 
0.95927827906159 0.9938863481462676 1.0788370747253677 1.1709971668181 1.2435041332051116 1.2742278619350786 1.2421225379932732 1.1517114523432812 1.0546566130984654 1.026002891664179 1.1025912505369435 1.2432479567573855 1.356973232441602 1.375500748550528 1.2992447035492822 
1.0355605070128544 1.0519311834271448 1.0853909044248091 1.1142308691131126 1.1464945458639364 1.1873208914697462 1.211699922576409 1.1862320856939714 1.1160395292502598 1.0546421675131472 1.055247407829972 1.1134504155246696 1.16637357410848 1.1515621508441236 1.0625747611871628 
1.111926517617282 1.1310532667921644 1.118842733746086 1.0829641434372412 1.0670591806327194 1.0999363014374235 1.1538047412515686 1.1668619116624206 1.1088832532988908 1.0147004119505911 0.9456416812380735 0.9226101794087879 0.9074307588572073 0.8523529794839683 0.7586788181944292 
1.1532795113345395 1.1832076523965962 1.1427684436330723 1.0617466638340556 1.0039707288219448 1.0102761107931792 1.054912432558476 1.0694877977090917 1.013252308644754 0.9129148939292371 0.8279660589377796 0.782938425499499 0.7459365315211044 0.6774689172984577 0.5898982791042917 
1.1504226400150963 1.1817360089650943 1.1372478500248517 1.0502057952522899 0.9772912925667651 0.953083271400751 0.9579758274240698 0.9412344658595184 0.8791148593840679 0.8027405702204806 0.7613280756560007 0.7621701551377723 0.7596932993788377 0.7108492735144747 0.6344494486013766 
1.118793916067101 1.1384015184837848 1.1130891871687165 1.0614143230203807 1.0087376103429522 0.9676140223561763 0.9257567571101818 0.8646029018434666 0.7927539784071483 0.7511340897134313 0.7733803839547125 0.84106201887532 0.8897909752629979 0.8704314251610799 0.8036290013863218 
1.0703015882206453 1.0746107571897037 1.0793056138673056 1.0824966087514412 1.0720960315196635 1.0346928333034207 0.9636205931646106 0.8705375300580908 0.7918352022956108 0.7726177618196699 0.8299918511819111 0.9282011632174778 0.9990240095535289 0.9985528418526142 0.9475816831973444 
1.0111152660823892 1.00387507959372 1.027491056660698 1.0701481196784508 1.0972279945189336 1.078020829674926 1.0070772090388402 0.9100969823581225 0.8319286416176191 0.8107021787175815 0.8518852357457678 0.9226049447941543 0.9760754882207183 0.9895295872414257 0.9814347409611592 
0.9616982099074216 0.9429471005118916 0.9560072460019367 0.9995735082959238 1.0415373089837119 1.0465965598106206 1.0030248831630795 0.9289567860592663 0.8567983723702692 0.8106514538589326 0.7946754690709267 0.7996234796637997 0.8191350937680607 0.8589632207697367 0.9287973725505797 
0.9503700528877643 0.9123867371031432 0.8860362226638286 0.8986341750639283 0.9396087498949452 0.9757438467234342 0.9797037085326094 0.9452459115287313 0.8813057605970347 0.7998618551774452 0.7147862573351055 0.6504541398553271 0.642568371094139 0.7195151212073815 0.875504607887488 
0.9783147176433992 0.9134890293316503 0.8403274324485676 0.8197986832994905 0.865872293266162 0.9451035573707076 1.0081388705661847 1.0197612927289028 0.9677904713195512 0.8596662239094202 0.7233688540658073 0.6106362822710709 0.5840539304890893 0.6817338363610911 0.8833409269391435 
1.0103324637572928 0.922437589199648 0.8225974799524395 0.7939428169618348 0.8631452012681097 0.9905360504133227 1.1072086582332838 1.1587413773304847 1.124019365566141 1.012612595632488 0.8604863193952696 0.7273909093382428 0.6801145759882236 0.7560401023689988 0.9318221260359673 
1.0126247241775705 0.9215128713806936 0.8314022693247978 0.8250761957644092 0.9243973843221711 1.0811229733451047 1.2197407700583103 1.2864875075558797 1.2668003613328946 1.1748069626758255 1.0415437412230633 0.9123985829545306 0.8389075812076622 0.8536757242108548 0.9456690188791891 
0.9890731656735021 0.9244704932688637 0.877974518126196 0.9100218658900218 1.0248948366452075 1.1699719984186543 1.2808987994387229 1.3249164835693534 1.3062109896855127 1.2428198716470735 1.149719436742103 1.043335450911325 0.9498529490274887 0.896477315398101 0.8923698011297039 
0.9727574425833423 0.9583344231911665 0.9695970362899506 1.0344655024549754 1.13809658171823 1.231980270431801 1.2761789419964993 1.2694394071694548 1.23837490103405 1.2031202418814977 1.159329457834338 1.0925670678202812 1.0029605263876833 0.910592758409401 0.8399037906667433 
0.9938290371957763 1.029902880206654 1.0833254553126186 1.1556310454217447 1.2229040777044675 1.2496491120531341 1.223164121314026 1.1695228669938431 1.1309682623022708 1.1267789495552587 1.137362541252096 1.125546596926707 1.0705510796022892 0.9817222025449314 0.8860347874879707 
1.061914601025025 1.1214573744923073 1.1766250560127904 1.2197285592109561 1.23367944453752 1.2021954753931814 1.1330019454214164 1.0641445961972682 1.0393813516987351 1.0729325870207997 1.137237311236964 1.1846699730466153 1.1812676643265116 1.1231157330377544 1.0287542814669153 

0.9182252458458501 0.9989811809201113 1.1267138016068619 1.307775815496806 1.4876307058709224 1.5702760784323586 1.4946425340422196 1.301124858996142 1.1147802327167478 1.0473014068049222 1.1052770278120994 1.1941025357228 1.215153013776916 1.1601313240393996 1.1095327364805176 
0.9440771701662218 1.0167286127195672 1.1285644553909684 1.2720382111703525 1.4108654412197477 1.4811238880595354 1.4343825234331677 1.2913788331598264 1.1450507172299909 1.0927057035984729 1.153595086105259 1.254073016359508 1.299737639786966 1.2638259401812837 1.202158125537034 
0.9843994764053596 1.01987567500052 1.0884079365045745 1.1770641619208537 1.272468216561978 1.3430772710376417 1.3485636911970738 1.281275703344296 1.1928277619263872 1.162163811616065 1.2252230671936655 1.3373453534920858 1.4121208993220624 1.3991980247597917 1.3202563146441837 
1.0644231041832506 1.0565792111294412 1.0654068119042415 1.0862511962524275 1.1342646683396485 1.20775867718308 1.2686333537052636 1.2755425962075808 1.2350288393969406 1.2056187227630657 1.240857220561423 1.330381787378344 1.4047594163025536 1.3995465317657718 1.308786105764454 
1.1772052878566455 1.142642483874257 1.0887478089145142 1.0330618891234904 1.0247078893876442 1.0892421603410574 1.187752391473539 1.246325852085881 1.2290294254778518 1.1731481931186512 1.1459034488615045 1.1706595014651922 1.2038948618308227 1.1843811087303684 1.0951709429284344 
1.2643150496479714 1.226765484404532 1.123362746186566 0.9989242788439462 0.9335201960304443 0.9738856871572003 1.0814392360763585 1.160878429734164 1.1464930816457088 1.0574436400103542 0.9661892407572359 0.9193165577331713 0.8984298607000883 0.8573139003334403 0.7836948163240233 
1.2743239386365723 1.2464491111706524 1.1205872880998822 0.9593658218273718 0.8561471517633192 0.8657493009142516 0.9539667652233662 1.02486270843356 1.005696801070874 0.9055966659530391 0.791321876664643 0.7132174905301909 0.6648697290901567 0.6147873906505291 0.5629303280450481 
1.2229535407296894 1.202574968060138 1.0867805320826869 0.9357849017167373 0.8288283882682382 0.8115966566205138 0.8592508839605096 0.8987473205148431 0.8751259917994788 0.7964091559494132 0.712733382540356 0.6575990548477858 0.619871829138827 0.5759864230200772 0.5383891115226289 
1.169540199077773 1.1511428826161443 1.0721189232789068 0.9710894724563502 0.8905673505555752 0.8545837027681634 0.8520101560123895 0.8488480826169476 0.8229069533967176 0.7845504494540899 0.7591769706358786 0.7520309393334007 0.7399499835822466 0.7042962204909153 0.6671096330499353 
1.1430848068627952 1.1278399867927615 1.0952878379490096 1.0560497269469926 1.0113658498968712 0.9627083849727843 0.914377731087956 0.8727073565907938 0.8465645989697065 0.8447637680856941 0.8661857670282188 0.8918076864819515 0.8943489494703875 0.8646713767829712 0.8295262984362884 
1.1192228929246069 1.1114430009563696 1.1126100235872576 1.11537181612008 1.0945943637241622 1.0380687739081682 0.9617836973956798 0.898346510174929 0.8725983139352878 0.8857514387603992 0.9177600585644944 0.9428887098649645 0.9471257751364185 0.9373194299753718 0.9361774739136329 
1.0696824029978416 1.0674232058052753 1.0747231551910104 1.0862255377635566 1.0735978602637162 1.0204892601904536 0.943767201069269 0.8795577069724371 0.8506309174670349 0.8496049828702326 0.8534612667569708 0.8517473585850069 0.8586135154574305 0.8975866202025723 0.9756320356675694 
1.005385486122004 1.000018062308488 0.9905443399318447 0.9914315382113451 0.9879363332062414 0.9618900880677418 0.9162187621512984 0.8696354940573215 0.8316281733496586 0.7922706136746845 0.7426202763771143 0.7020465236020552 0.7159670259720309 0.8180634061237165 0.9918713383531229 
0.9579493175630133 0.9440920692633447 0.9165737295093371 0.9150511167677019 0.940841238097495 0.9693286736670675 0.9788179843436506 0.9612952580877866 0.9125940584446423 0.8285719056147649 0.7224662583979607 0.6421967719612366 0.6542116746477727 0.7938248959918462 1.025273167215881 
0.9383941158961767 0.9223707380049715 0.8972377471143386 0.9177373753362108 0.9915703745697181 1.0829650311879977 1.1470984148498005 1.1559785496339647 1.1005591307103209 0.9871789156467741 0.8454975531005993 0.7352871643268011 0.7257517366989655 0.8485665615852739 1.0644593036324483 
0.9312031821943056 0.9293414672580783 0.9336353707059192 0.9939167651268938 1.1106515386930185 1.2379939949042567 1.3222919719224184 1.3343930093224396 1.2733688629176045 1.1558866533350902 1.0134481110796778 0.8950416246643869 0.8543423872732862 0.9173915463115199 1.0585298981137954 
0.9186928321359069 0.9475309003589025 0.9984305608010863 1.097499122158625 1.2286538484800253 1.342529035707622 1.3950016652082047 1.3753067978428772 1.3014858061857142 1.1985621810273743 1.0874955171224943 0.9905243513011933 0.9341017083489682 0.9362189440150457 0.9909575131694194 
0.8973421213879609 0.9622043830581627 1.0579478136089304 1.1798968624027437 1.2953426508491521 1.3590386475863139 1.3472262195221187 1.2756432424201178 1.183874853622327 1.103724097590078 1.0429643459230284 0.9949933925417045 0.9566212209039177 0.9329668009318345 0.9295701926904186 
0.8788262974228408 0.9667330779698913 1.0844723755421684 1.2051907715712464 1.2894428586567077 1.3019014772380815 1.2374217155783214 1.1302310476789459 1.0330170060589752 0.9819688325681671 0.9774419397172055 0.993589110412385 1.0029795800933494 0.9930405647033931 0.9661629130035995 
0.8875765470153835 0.9706776115919405 1.072126762009825 1.1617788403304905 1.2094098154904858 1.1937893611992858 1.118450889552968 1.0178967567406976 0.9420147362227359 0.9265790278719592 0.9722602504441961 1.0475985231328404 1.1105230601006038 1.130037523935636 1.0957009905786244 

1.0534238397691054 1.128889313282572 1.1998592692895524 1.3009875715134456 1.4232603699389563 1.5050409515513126 1.4860162663031935 1.3751992376240136 1.2575353072267141 1.2212103363894626 1.27428951919322 1.3386135737253637 1.3320569511715088 1.2553922973814622 1.1911803078822594 
1.0766760410449043 1.1268139381183828 1.1611613181524012 1.2092174458848204 1.2873777668524582 1.3679581021395788 1.3984181283399075 1.358398850914269 1.2910462690796307 1.2659399637416722 1.3074381423420522 1.3671860679024328 1.3754043776407094 1.3170483118476017 1.2470741515082842 
1.0903983002061897 1.0961187909727674 1.0817095413121511 1.074418125574398 1.1137006719066558 1.2021519214223058 1.2926734377601683 1.3341465510309476 1.326445376084537 1.319855655788455 1.3565906764131381 1.4205813744502378 1.4535303327015328 1.4180009611528424 1.3332501000465826 
1.1475667504051943 1.1096313013105958 1.0410852184492771 0.9748044521108562 0.9725132247347894 1.061813375312315 1.1984864489425897 1.3030922720279299 1.3360221604978975 1.3293537703265774 1.3419492837263123 1.3903648567203009 1.4321391280763383 1.4142472682091611 1.32572300222055 
1.253666131269322 1.1891366649783115 1.067528717116133 0.9373820209953296 0.883692170319626 0.9545453950398423 1.1075697470452663 1.2407333515591095 1.2818399432311036 1.2457746278144697 1.2034812510954107 1.2019169308755924 1.221889309070555 1.2106507419723571 1.1416351282708153 
1.3404836334465533 1.270344996095945 1.1091821428521973 0.9250568945778047 0.8216079462690575 0.8604041928235692 1.001846591764505 1.132252406571164 1.158758850253514 1.081336468413249 0.9748498946000562 0.9082225532558205 0.8878495313245984 0.8753604285227957 0.8442787346335265 
1.3412146417770918 1.2774854788195413 1.1040438944987718 0.8998786284383868 0.7710526506815232 0.7803777541995023 0.8938865110820742 1.0033051723241475 1.0129259467365825 0.9122047591359485 0.7686537155850564 0.6571461501902494 0.6022715534937954 0.5853892529909254 0.5912228904811653 
1.2734935994383578 1.2174574343632072 1.0645834418654863 0.8863370872643669 0.7676100048427384 0.7584341257480741 0.8354632835727522 0.9156215854411007 0.9195281402430825 0.8303363978055776 0.6954754511220563 0.57661956623148 0.5037537332177485 0.47635361231604967 0.49583519166737944 
1.2172544133646768 1.168835511137182 1.0617381445743472 0.9422553014700025 0.8560766649255093 0.8325937271021254 0.8655562705690337 0.9123399373396746 0.9223214607981147 0.8730789780094155 0.7813728613977624 0.6818643193898106 0.6008062841977201 0.5529785677653504 0.556734843855703 
1.2152819929884138 1.1798504035458017 1.1251112168630013 1.0663045046614172 1.0085489496379818 0.9635015459787298 0.9467001402452331 0.9594996094154769 0.9804828277153188 0.9792502708086332 0.9389199062066217 0.8658875293975915 0.7827695570456931 0.7178117366022724 0.6999307984776332 
1.2266865090195616 1.2101708703566136 1.193628817679282 1.1705077183474506 1.1204571610879812 1.0469290944752645 0.9848489149670777 0.9686677405706132 0.9964771582918035 1.0293156276694766 1.0258246823271868 0.976724240874229 0.9083607721720653 0.8589038985128148 0.8539251794299411 
1.1857911882577752 1.1865794097895779 1.1843245062178425 1.1688724337356682 1.1149423887600967 1.024400945599829 0.9389955710924526 0.9049149267787695 0.9269438491197021 0.9633862306522742 0.9684668940623521 0.9374696172968687 0.9084695508248383 0.9222792578781188 0.9844122242906207 
1.0808791145806302 1.0919599032670324 1.0896263999196938 1.0760351733995068 1.0342780765217772 0.9625422487045259 0.8906204644190976 0.8540236662268278 0.8552025998133673 0.8606179037824242 0.8418312434909433 0.8154003095415399 0.8337048188212692 0.9320969195808536 1.087085736851935 
0.9592186067537413 0.9791101814425827 0.9841130246978929 0.9932307248664752 0.9987289532585923 0.9877011453067364 0.9636537668694715 0.938784511600689 0.9113124481315273 0.8651245052741111 0.8002393391679342 0.7575106331417076 0.7983115298734289 0.948766657909942 1.1635660261194087 
0.8726921697038655 0.910907572152108 0.9456119156799667 1.0038215418118526 1.0789679872515947 1.1429822919655126 1.173175572038844 1.1619517457748074 1.10836773022231 1.0160166483222168 0.9079359715643003 0.8362510123151289 0.8594206495160629 0.996000433099438 1.199153830136174 
0.8377232247291019 0.9073211795501969 0.9894065777757269 1.1025350964544693 1.2319952745147358 1.3387551097659784 1.3888035714247828 1.3714967943218488 1.2960871766333688 1.1822915845039779 1.0601585603096915 0.9719849120923468 0.9589488285603097 1.0342551378308031 1.1687465650263529 
0.8374748400774606 0.9422591569216138 1.070406112858938 1.2180001810404106 1.357421504436918 1.4479416632630242 1.462999981672335 1.4070599527348389 1.3081568561711787 1.198043598560301 1.100256807086844 1.0313406385147652 1.0039633205306875 1.0231211995847698 1.0814259591402071 
0.8427747102553854 0.9703610481604962 1.1242718010629917 1.2754704116910562 1.3858051852334166 1.4204208558764488 1.3693843585655623 1.258548804692257 1.1362215111896772 1.0444786802971788 0.9981788267236112 0.9863225637387922 0.9896462233429415 0.997054867696436 1.0102202894783399 
0.8351049621369787 0.9598093333560918 1.1081159889983918 1.2370139969722969 1.307460725790627 1.2935988073980917 1.1969871311688531 1.054408015821322 0.925173436648219 0.8599182402519664 0.8720825849917957 0.9341418883331523 1.000450930447069 1.0371017743699036 1.036976021145048 
0.8270166122805049 0.9208210531076484 1.0297538940057236 1.1158838845936643 1.1535870284473284 1.1275004599349465 1.0382989769256479 0.9138794064795955 0.8077302966953684 0.7738533084658775 0.8324652491676053 0.9546809792750911 1.08009505461479 1.1526812297177411 1.1472360713447047 

1.2060607612645415 1.2662013387897337 1.253017159059005 1.2320334962570558 1.2501687956401208 1.2943915606456513 1.3174281591694053 1.3011357903712741 1.2834863637327203 1.3145471677310585 1.3901766492371141 1.4436388558724493 1.4133996746404196 1.3159304275374222 1.2385686803449425 
1.2308901644535752 1.258372761000035 1.2023819419513786 1.1273622668228795 1.1057947551338332 1.1556718289129715 1.2336729896114451 1.2891090872526045 1.3165250461920759 1.3483221686708244 1.4006314780644487 1.4418759688806784 1.4260383399408005 1.352344768749143 1.2760724208381076 
1.1941760229584282 1.1828798102359368 1.0937859813436126 0.9852783415731513 0.9440444749552086 1.0104656268940881 1.1448621572419255 1.269967330030381 1.3430647553840793 1.3814551934554329 1.420966143995773 1.462939324368823 1.472612093624321 1.4253093346433592 1.3385288380191858 
1.177853799601436 1.135115954353635 1.021286248217397 0.8896135079183851 0.8331300452841776 0.9063995073957333 1.073643680159468 1.2399342130443105 1.3349985026711964 1.3641948416116616 1.379782073591282 1.412456490204527 1.4399620088797769 1.4192948042795916 1.3356245004809137 
1.224981833579243 1.1655516882365355 1.02969382284734 0.8722276996464972 0.7903599120220715 0.8474297326023946 1.0121751316509273 1.1804673957968768 1.2633939364346465 1.2558761888911865 1.2214276393745958 1.2170433786754007 1.2396679595237878 1.242714270584727 1.19163806741504 
1.2862246455042055 1.2242105087015145 1.0728328200321493 0.8934491931119808 0.7842846715589233 0.8115857198938143 0.9491299219289423 1.0922531274926102 1.1423350692278 1.0843588001967657 0.9855861435820412 0.9235453669787974 0.9196001225852165 0.9388928084823034 0.9416096461226983 
1.286619839935784 1.2284412503153277 1.0790891053635168 0.9022591455239046 0.7863815396282199 0.7914286458222393 0.8973235247838156 1.0099223552533985 1.0318390597391782 0.9385646863133483 0.7905355819943519 0.6741118998679824 0.6330502475021372 0.6536769593981823 0.7037756004909784 
1.226519212879257 1.171346266126164 1.0475956190232942 0.9083610321002592 0.8160762794208158 0.8148557298204844 0.8941959773242544 0.9837109269848362 0.9989387534892241 0.9055888060860676 0.744340070453004 0.5941974559792934 0.512861868886441 0.5108592727644199 0.5733120058310971 
1.1809084151230973 1.1285999513217488 1.0473845491199856 0.9666635962424056 0.9116673762347406 0.9072988244948123 0.9587862407218128 1.030828207824614 1.0600307778755895 1.0005758839818375 0.8618870895582486 0.7012157629594107 0.5807852887795343 0.5338759285030996 0.5670595853424164 
1.1991966140115844 1.1552620486009166 1.1168219548817917 1.086033855603929 1.0535437631852713 1.0307806085869777 1.0441019298869052 1.0968113624100027 1.1479702333408586 1.1392249064208801 1.0451862869162039 0.8959693616508041 0.7523734496911111 0.6645751041159004 0.654990455275836 
1.2399780216259928 1.2104541671710725 1.198483928314173 1.1880474080722347 1.1504702565681555 1.0932380477964374 1.0620632070937668 1.0907931840434077 1.1564360039915793 1.1924150695379403 1.1482844947956785 1.0340414736418961 0.9071624453837351 0.8233896721705228 0.8045816206038721 
1.2209373082117407 1.205323135774008 1.1994221653402195 1.1851280007229885 1.132153572791275 1.0482291206098227 0.9855752356212345 0.9904953200644083 1.0513088676685167 1.1049027076458504 1.0974315825495733 1.0347945187216427 0.9713757512553832 0.9542159476160927 0.9846981413630368 
1.1118410150686842 1.1064667252420697 1.1001264264109625 1.0858112839112954 1.0413808004509448 0.9697668522240301 0.9099678961631921 0.900097774354498 0.9345326100517565 0.9682037956269276 0.9671349728124037 0.9486927060927098 0.9643349521286794 1.0424323764149501 1.1541376808342063 
0.959876280170744 0.9690555167761072 0.9780767595487201 0.9937132589775857 1.0009686645615044 0.9892965017343214 0.9695188771443815 0.9587185513981574 0.9552783389052936 0.9412504281766092 0.9139396344793912 0.9068953080294598 0.9667967931434225 1.103727908278179 1.2683757576971417 
0.838231054056798 0.8775610923880878 0.9285258307990774 1.0029984465421729 1.0862351089844973 1.1514654014798116 1.1818458344920115 1.1755603546212399 1.1369399009052188 1.0740770175522072 1.0089730865401303 0.9812115408248867 1.0272152485591493 1.1474656383650652 1.2964027002415692 
0.7897885639570021 0.8742826487156751 0.9815138091008152 1.1143320749029004 1.2522194349246916 1.3592195336307356 1.4067715623471093 1.3893839301873676 1.3229348649759878 1.2339334684875398 1.1514849263850455 1.102588225078962 1.1045327956588498 1.155637779594667 1.2351550985748752 
0.8101475316425509 0.9381235214533215 1.0898348840959375 1.2487183386699834 1.3870710117638518 1.4711318221434002 1.4798712178857598 1.4210431627664297 1.328207538956148 1.2398880237008165 1.1782379879918432 1.1434925202605113 1.1250910112152566 1.1171140690400527 1.125570806542663 
0.8600119396690398 1.0081199536929688 1.1719633538537222 1.3161607152977686 1.4096515566805814 1.428174862030167 1.366320234914701 1.2501997594156418 1.1317392263463062 1.0598063932625426 1.0486417506174988 1.0716354980457634 1.0873599813818213 1.075267685430303 1.0504993711016386 
0.8938417220122856 1.0270232291747712 1.1656919196697677 1.2681575495464892 1.3086175776936697 1.2730694382680685 1.1643795696414379 1.0153178653707324 0.8867601807690095 0.8371312929604848 0.882034969789521 0.9811989695407501 1.068443862051108 1.0995866644246322 1.0767743437200483 
0.89811154355355 0.9872004435052595 1.0710293259636097 1.119541331034665 1.1240039347922952 1.0797301803663566 0.9840460517745682 0.8558945546305373 0.7477861389773192 0.7223303791583034 0.8055166383467368 0.960505420132141 1.1099162726958873 1.1872280636635182 1.1715307718450507 

1.3530563313848072 1.3857136596275126 1.2866552396188924 1.1466840898916395 1.059124610832153 1.054770422782445 1.1036349671018328 1.1691352930039196 1.247020621866365 1.3466203238060488 1.4460414421367762 1.487723881249479 1.43247887145561 1.3137476900779634 1.2218968616283172 
1.3649651459546126 1.3629615834071065 1.2271959146222229 1.0470217608424233 0.935026112248573 0.9456383366062248 1.0491261064426003 1.1773968889039437 1.2866789827075702 1.3734602289041726 1.4407102036269266 1.4688280139261503 1.4331497994069733 1.3450944306840102 1.2581657889610742 
1.2635292962388247 1.2355425121013406 1.0950881756234114 0.9167443208063091 0.8129608373037314 0.8498097630202638 1.0005327656618386 1.1786474978059456 1.3135489602842618 1.393438587321186 1.4426380240650403 1.4725092367155916 1.4660529211930782 1.407343424821709 1.3110102870021678 
1.1488389989946266 1.1103698197709608 0.9877653039517549 0.8346529867555003 0.7498182936583844 0.8015402162975124 0.969680823638445 1.163762706492466 1.3001569450524695 1.3624741116215868 1.3904215736903933 1.4191330086455087 1.4383834378289375 1.4105476009530347 1.3179160492408735 
1.1053151225316618 1.0700917611285838 0.9692084897846831 0.8392265101802481 0.7617865715650527 0.8027746020595589 0.951156952004574 1.1224085261816255 1.2291649698513782 1.251405868374324 1.2382236834485787 1.2448295744548332 1.2739278030271373 1.2799228089664219 1.2233893132073046 
1.1181675154552027 1.0932738882687034 1.0105051362703898 0.8969240543059971 0.8176794144673396 0.8330862200445113 0.941270863398751 1.0689412696505145 1.1300489514016654 1.0996635928602174 1.029898984428577 0.9930218514527926 1.0119594541846961 1.0481810645217462 1.052194832768623 
1.1153889968888828 1.0985894823492575 1.0353278082939306 0.9458199344544524 0.8757613097435196 0.8747144955378339 0.9485859792099884 1.0391770336951067 1.0655673703053097 0.9954218634736889 0.8753528803579962 0.7877397368461123 0.7780318434945734 0.8261257797867451 0.8845606178151589 
1.0741697094354814 1.0562946082677818 1.0187905767770236 0.9705293898000313 0.9308009699209282 0.9329407041613491 0.990554844598282 1.0653910097455275 1.0855962605403149 1.0080480366230853 0.8627464970042213 0.7303365669170049 0.6747767808231855 0.7008728809804518 0.7751928352603028 
1.047328575768523 1.0205624463495186 1.0108816671923857 1.009947022212075 1.00696427765731 1.0184295814021938 1.0683788522360205 1.1432972367987948 1.1833990907031398 1.1315035952376795 0.9906006582405457 0.8268926961053991 0.7151030547907139 0.6860611039704668 0.7283053176113952 
1.080753955912356 1.0447248710590067 1.0537833535143215 1.082950662378905 1.0975833769462575 1.1035001428545903 1.1380906265224549 1.2134984188256808 1.2829713432204444 1.2755306146339795 1.164048741733668 0.9930252215118457 0.839221209885325 0.7529848236841644 0.7421545980703853 
1.1413286164316978 1.099800157444641 1.1092368296117692 1.1376262961190728 1.1411514065326744 1.1228753760117276 1.130834675253971 1.196397175723546 1.2853758169743559 1.320958299894332 1.2555611642403983 1.1143560794886511 0.9678630883112845 0.8707008484512698 0.8342530627392301 
1.1506249468090899 1.105126782495041 1.0986006477630328 1.105845249342324 1.0883821002100271 1.0485557510514707 1.0331000179165322 1.078954351251669 1.1638616699959718 1.2208413171601307 1.2027117575001705 1.1259826351955229 1.0483621130270246 1.0098283898764744 1.0044413077227323 
1.0727185215192812 1.025148390563231 1.0030555730457418 0.9977562502406784 0.9825219690324635 0.9530243843675016 0.9375410268150866 0.9629271098234216 1.018311773482946 1.0629808388132536 1.0716886282376312 1.0639991559806732 1.0813643168487683 1.137184914933743 1.1978386528387208 
0.9466334993166379 0.9092859984586256 0.894427330848136 0.9094928406242277 0.9368774533484696 0.9580888856376166 0.9714995693899395 0.9846120851805601 0.9971859502302415 1.0023478209989096 1.0056638983396282 1.0333761898612808 1.110158168151146 1.2256077220617012 1.3292554802707448 
0.8426535074814735 0.8400077052728598 0.8648732108232163 0.9305383964967581 1.0220961577827121 1.1067727465617074 1.1567556211819863 1.1635856467574848 1.1375151999357418 1.100384800385763 1.0793865081480396 1.098806765596131 1.1662074626524803 1.261465051308463 1.343640175980049 
0.8080346459576866 0.8618945741994941 0.9446151023934116 1.0613847847081757 1.1954871370647115 1.30928524005152 1.3664616287007263 1.3570619000093478 1.3038111434838497 1.2453333955001433 1.2113192839618794 1.208549509272014 1.2246289915134767 1.242239387088488 1.252233400617464 
0.8471701252257015 0.9570200685309207 1.0860876970789928 1.2224108049393085 1.3471241493799289 1.4297479039851644 1.4444556404438487 1.3949354065480075 1.3194993731379272 1.2647454335633408 1.249218913405485 1.2516049599062544 1.2352846122594054 1.1857921059609438 1.1263098462591756 
0.926575970169915 1.0639899758521292 1.2038953851156822 1.3191870190895512 1.3923949470714652 1.4061555693325678 1.3514875944884448 1.248996240975098 1.151808464261788 1.1128239153625232 1.1407098321395135 1.1895385384012118 1.1978393930892808 1.1427375298734441 1.0584519441954856 
0.9942743976284376 1.116987996410828 1.2269122324832322 1.294725526717142 1.3115039402912245 1.2716054498934821 1.173676986243513 1.0422428475768055 0.9353600729641657 0.9124137661749985 0.9841127293157816 1.096248625809141 1.1700524568530857 1.163597898392489 1.0963538623599165 
1.0174509113559762 1.0928091568572302 1.1431778225029854 1.15383018954194 1.1344632943198394 1.089023748457179 1.009499881994634 0.9034529818785267 0.8159396591343077 0.8072962896810018 0.9003800120153125 1.0517940409768576 1.1804895675651141 1.2266433218638118 1.183659620795777 

1.4569523733143317 1.449593565514966 1.2889966022867587 1.0784793389604328 0.9329180831512833 0.9066606672151015 0.9809785374770599 1.1065507103176047 1.2463062751947076 1.3775712522957222 1.4694421436680472 1.482059018035577 1.402144924066723 1.274169319701318 1.1791211434365798 
1.4345736328206335 1.3864295682314802 1.196003135151642 0.9641388819107765 0.8166169057021688 0.8217659775731364 0.9558400543654052 1.1386594936788765 1.298340026269912 1.4054658668775044 1.4590928109274675 1.4590552464427042 1.4036387774119259 1.3095750141173625 1.2178044097685672 
1.2743199897316817 1.210965980526446 1.0411967525674157 0.8428254013660027 0.7283396890087971 0.7682132829316209 0.9414998577204627 1.1574961181196546 1.3273235997096622 1.419452602634677 1.454800838807735 1.4603330868868913 1.4367792303612892 1.3703926259716215 1.2649868408630027 
1.075728283098912 1.0254676348152043 0.9131075262787169 0.780593803137534 0.7104444449303736 0.7673865622120764 0.9417742402988845 1.1520487786975635 1.3090058644541958 1.3818103952748308 1.403563952396372 1.4172646336127035 1.4235978403990917 1.38512753955853 1.277034925748258 
0.9471188957670128 0.92801406234707 0.8808262571103259 0.8126240606979254 0.7726187994925012 0.8175692467873905 0.954175053891977 1.1212488500953826 1.2383646346895674 1.2753183046900984 1.2702569641774692 1.2777111245142598 1.30396669090212 1.300815307647142 1.2235799403772365 