# vtk DataFile Version 3.0
vtk output
ASCII
DATASET STRUCTURED_POINTS
DIMENSIONS 15 20 65
SPACING 1 1 1
ORIGIN 0 0 0
POINT_DATA 19500
SCALARS Image float 1
LOOKUP_TABLE default
0.7287415279956336 0.6756413278893703 0.6305640659911832 0.59475044750443 0.5691471341115101 0.5543259232429293 0.5504114733221562 0.5570342462257293 0.5733237261741583 0.5979520265208481 0.6292304662479347 0.665252852762353 0.7040706062790267 0.7438780824337469 0.7831828113873169 
0.715448231283695 0.6653697085526659 0.6235061613623769 0.5908122830805762 0.5679721172230171 0.5553458006791266 0.5529153326350861 0.5602445840475202 0.5764689004321818 0.600326291662146 0.6302358564326168 0.6644208514362612 0.7010651735790431 0.73848459309638 0.7752893106476825 
0.7038168581575888 0.6580391354697553 0.6205291939735206 0.5918989964406568 0.5725274577478532 0.5625387358103483 0.5617686169235118 0.5697322569442547 0.585608622907669 0.6082554744741097 0.636263862457446 0.668053783904229 0.7020041902249212 0.7366026087356714 0.7705937716620995 
0.6931689979782177 0.6528429623408659 0.6207263416090825 0.5970433472694519 0.5818333355770373 0.5749635001421419 0.57611790493851 0.5847737231684372 0.6001796902066455 0.6213523176139623 0.647102277530523 0.6760971839513977 0.7069589818250522 0.7383858756420629 0.7692818261527354 
0.6826204938439562 0.6486941586797738 0.6228502327347928 0.6048935547204503 0.5944980678792625 0.5912556699966088 0.5946894959241278 0.6042397116330732 0.6192361280889778 0.638874633704421 0.6622132046830481 0.6881984369605895 0.7157261699800912 0.7437313288366342 0.771294279884705 
0.6710832364467086 0.6442454611725187 0.6253469755766573 0.6137559735671042 0.6087639086547815 0.6096712415900907 0.6158262589298448 0.6266219127036198 0.6414638852286613 0.6597279483661359 0.6807254493302612 0.703692473048661 0.727811698119314 0.752267549355406 0.7763266432292876 
0.6573149663542556 0.6379660798450956 0.6264536821912344 0.6217064107331046 0.6226247442604288 0.6282034977137313 0.6375972510841937 0.6501302347204956 0.6652623253061271 0.6825297879862501 0.7014822005989357 0.7216353673573146 0.7424545176990262 0.7633739093977933 0.7838497699009301 
0.6400251366987135 0.628278945531853 0.6243600832974692 0.6267680672548698 0.6340118819972315 0.6447683361335611 0.6579750457231945 0.6728558789543261 0.6888884850931042 0.7057324946438903 0.7231417873796209 0.7408843254836414 0.7586887212165045 0.7762289880181613 0.7931493967000846 
0.618032333758307 0.6137488768229474 0.6174203471807389 0.6271389519169631 0.6410285849547089 0.6574376004420662 0.6750602187232633 0.692980488983649 0.7106458943744745 0.7277884356529133 0.7443177639876221 0.7602127984668786 0.7754352635483462 0.7898815427796446 0.8033796447283609 
0.5904555785527829 0.5932987580549383 0.60438788576767 0.6214383197030273 0.6422008471934887 0.6646870460900701 0.6873199253941747 0.708999673533189 0.7290885494247177 0.7473312427977462 0.7637355595354677 0.7784419164502824 0.7916085816145142 0.8033334658402019 0.8136238895771711 
0.5569107753204138 0.5664206411640492 0.5846365703138249 0.6089330668109353 0.6367039363055135 0.6656181836865687 0.6938006277214901 0.7199228197653341 0.7432047520193701 0.7633413951325089 0.7803782640765035 0.7945655728038268 0.806220546266366 0.815622457533473 0.822956099285425 
0.5176770984728737 0.5333439401357053 0.5583285771882776 0.5897031186386494 0.6245233775383975 0.66011315891828 0.6942754588896359 0.7254118217790843 0.7525463319428946 0.7752652395522622 0.7935948205302635 0.8078471093882849 0.8184647908024268 0.8258928725386406 0.8304967289216106 
0.4737979174039698 0.4951249731237945 0.5264931553193368 0.5647105397690467 0.606515957974813 0.6488895128366666 0.6892947485814643 0.7258293376609103 0.7572763603802656 0.7830634481948701 0.8031499034530177 0.8178705472264636 0.8277683916416234 0.8334460932786195 0.8354592223383469 
0.4270875179625535 0.45363118114575307 0.4909917353249048 0.5357498386334577 0.5843501924196893 0.6334361229991557 0.6801227535252127 0.7221812668276523 0.7581216364819404 0.7871767875349652 0.8092050264786379 0.8245377249271606 0.8338043154285275 0.8377661958773738 0.8371855853244362 
0.3800276732791815 0.4114082503846155 0.4543614289970763 0.5052748491592745 0.5603243787576507 0.6158305524670086 0.6685622613891802 0.7159559334753914 0.7562327057471223 0.7884118017222338 0.8122330401665535 0.8280129419922001 0.8364657059703359 0.8385216540653494 0.8351717751309621 
0.3355551235132095 0.3714367691807874 0.41954843742885706 0.47611771741388315 0.5370807604786537 0.5984582110052857 0.6566882373392752 0.708880834760934 0.752970988968806 0.7877638983416327 0.8128808058064989 0.8286268020041828 0.8358104610040232 0.8355483578000619 0.8290852847747674 
0.29675943057901766 0.33680387355151875 0.38956188657293045 0.4511344325874773 0.5172528490485263 0.5836715930427706 0.6465285677107653 0.7026334293202042 0.7496566719181385 0.7862075964772975 0.8118050780825075 0.8267589838396198 0.8319902167849034 0.82882241742898 0.8187779566668854 
0.2665272631016571 0.3103312606536224 0.3670937628111647 0.43282562335580255 0.5030962759400959 0.573440124348025 0.6397410939715902 0.6985523776699677 0.7473196681864874 0.784491016239789 0.8095125371007095 0.8227240965163648 0.8251807384758362 0.8184324928650905 0.8042966610239705 
0.24718089528260256 0.2942110304598614 0.3541590935399149 0.4229882887146297 0.49615908896418875 0.5690454393739397 0.637339329660111 0.6973979232488426 0.7464974825389318 0.7829725823084452 0.8062352942300153 0.8166847244580752 0.8155302704075692 0.80456054704943 0.7858932019028977 
0.24016326118398357 0.28970301750333516 0.35181054306750736 0.4224522376758376 0.4970439114755946 0.5708721772892251 0.6395136696146654 0.6992040622824006 0.7471176792894877 0.7815320469157611 0.8018678689198757 0.8086111997060256 0.8031387290427182 0.7874772146254337 0.7640330567408322 

0.6857167922353593 0.6344979980206088 0.591488180094986 0.5577692010979968 0.534161027004891 0.521144613480521 0.5187903365509975 0.5267095814726497 0.5440454134430129 0.5695130737307469 0.6014932010038251 0.638171515028218 0.6777098485179401 0.7184265023767596 0.7589602713930509 
0.6717989757118199 0.6235925817311205 0.5836678092242297 0.552836136566028 0.5316773931936493 0.5204882173575205 0.5192261037624771 0.5274654443810675 0.5443820436749592 0.5687789830844753 0.5991600045879888 0.633847960918675 0.6711369091130884 0.7094587821840216 0.7475407499196026 
0.6610503277082026 0.6171387844343584 0.5814153287169693 0.5543694887595163 0.5363045899764106 0.5273152569129541 0.5272490998583986 0.5356673259657682 0.551821059375747 0.5746583859748982 0.6028718659090755 0.6349884559999642 0.6694949175133392 0.7049835397426966 0.7402969969589047 
0.6526168808053462 0.6141571144719901 0.5836597726642317 0.5612507093676123 0.5469263967534149 0.5405630112618319 0.5418974394580806 0.5504928635105476 0.565705716284539 0.5866710562235454 0.6123198105359965 0.6414346043844411 0.6727423500976296 0.7050330723774351 0.7372872945763402 
0.6452934836693404 0.613242800665299 0.5888483801768515 0.571841781324775 0.5618882423599069 0.558629027691954 0.5616832438243387 0.5706193188770736 0.5849125884290914 0.6039078318972871 0.6268038490608417 0.6526717174521074 0.6805103618294585 0.7093340882344289 0.7382785463791657 
0.6375557711132204 0.6126153059355552 0.595008544402403 0.5840539810569917 0.5790671136633264 0.5794369641023512 0.5846501394841922 0.5942698037933459 0.6078852411964552 0.6250522656660275 0.6452449352259985 0.6678350339914149 0.6921085112823129 0.7173190019853891 0.7427694765005509 
0.6276578864320186 0.6102417684620105 0.5998898321899544 0.5955006702039133 0.5960272254342043 0.6005877528077873 0.6085136039654769 0.6193380438235928 0.6327405425976939 0.6484676841588081 0.6662540405733152 0.6857639525067468 0.7065688070155144 0.728165467006903 0.7500317437518745 
0.6137976211160038 0.6040321712933501 0.6011808170559977 0.6037266785281111 0.6102527158985628 0.6195868783156359 0.630875188009802 0.6435834902641498 0.6574405453414577 0.6723438390145655 0.6882536897350998 0.7051004970828693 0.7227247310499479 0.7408606830568467 0.7591647942221832 
0.594336216330556 0.5920886526212655 0.5967793433291004 0.6064902472455852 0.619431869976477 0.6341219490525847 0.6494855146213785 0.6648732838775563 0.6800087287830447 0.6948846785086338 0.7096364458325942 0.7244194651775614 0.7393154508935803 0.7542831062798715 0.7691590472506501 
0.5680462960661304 0.5729775195541427 0.5850810076021912 0.6020597957439423 0.6217539170748306 0.6423516845911337 0.6625184604744854 0.6814358314537715 0.6987586070279518 0.7145091705387887 0.7289366571256758 0.742371184715506 0.7551007977423535 0.7672916519969009 0.7789617484410015 
0.5343511115480254 0.545983090335837 0.5652419889818493 0.5894798236431221 0.6161721245265439 0.6431606740328353 0.6688126777637505 0.6920850186462605 0.7124975122338187 0.7300325227174818 0.7449879150723303 0.7578148170291709 0.7689706384569678 0.7788117534969444 0.7875404964125852 
0.4935138131714072 0.5112996637863705 0.5373709423990612 0.5687599877871642 0.602587499673992 0.6363354403429968 0.6680381267042018 0.6963757131707736 0.7206699500518502 0.7407965912438528 0.7570399442448164 0.7699212666680847 0.7800333333842532 0.7879087738952885 0.7939408098325667 
0.44673820381710605 0.4701227807696202 0.5026113047119727 0.5409493838917553 0.5819163122090679 0.6226267004912874 0.6607546675859366 0.6946602240539247 0.7234132390618555 0.7467256340862336 0.7648148863978171 0.7782297933220655 0.7876717941227109 0.793841944464042 0.7973357547912572 
0.39615246441549457 0.42461320917705814 0.4630894201693788 0.5080734040668993 0.5560207289474429 0.6036789727255368 0.6483456602654288 0.6880304158629468 0.7215118723943784 0.7482956214369035 0.7684930580762671 0.7826504222440487 0.7915614598065498 0.796095618208906 0.797067163171178 
0.34466342512567183 0.37772508315400555 0.42172335249372284 0.47293094421702886 0.5275026384623986 0.5818292756158826 0.6328293567406145 0.6781487303392296 0.7162538362855576 0.7464199565614762 0.7686304309881262 0.7834137277113004 0.7916511699291414 0.794388432365243 0.7926789709405008 
0.29568864996642186 0.33291056437984856 0.38190902846014363 0.4387719015648851 0.4993828145812751 0.5597981455359614 0.6165712784009162 0.6669902384216532 0.7092090402713052 0.7422690723202413 0.7660221000358585 0.7809787698899477 0.7881141727998803 0.7886642330615342 0.7839434816071251 
0.2527936928389781 0.2937338110013459 0.3471208163210886 0.4088950894403721 0.47470715616681025 0.5403148589247077 0.6019381780520416 0.656533698934774 0.7019640354717682 0.7370533180602075 0.7615356818775022 0.7759172189278049 0.7812812334621805 0.7790707575528563 0.7708809166349061 
0.21927892200670296 0.26344341647612535 0.3204792291071854 0.3862213712983519 0.4561353889138958 0.525731261224487 0.5909454724809069 0.6484495681877697 0.6958557690417019 0.7318056570160506 0.7559441648700158 0.7687956980896012 0.771570180010079 0.7659327903486502 0.7537716647642605 
0.19777123145437647 0.24456185443008205 0.3043463204365505 0.37290328618220425 0.4455727970421135 0.5176826391367019 0.5849530708138249 0.6438351020720325 0.6917486218894907 0.7272016203699523 0.7497881834976943 0.7600784243362457 0.7594259029423563 0.7497258169496226 0.7331595561578397 
0.18987863140551497 0.2385509740031011 0.30000790407423783 0.3700293425946539 0.4439011350369124 0.5168487020649168 0.5844585833304878 0.6430405589904448 0.6898930026852608 0.7234484583269475 0.7432929048761004 0.7500683439590122 0.7452819573009425 0.7310543872660785 0.7098436971019606 

0.6431033541474945 0.5965025504373104 0.558161969864218 0.5289012756323263 0.5093203414461234 0.49972955394449564 0.5000822549043523 0.5099277724599546 0.5284016943824056 0.5542646069409057 0.5859923659166428 0.6219115100936939 0.6603643736583397 0.6998814802315875 0.7393352670873997 
0.6282341576530278 0.5846606936685937 0.549321040944536 0.5227802814863112 0.5054203723942348 0.49739396224479043 0.49856995433740486 0.5084883146756127 0.5263416126603372 0.5509969098687961 0.5810645461071525 0.6150113849126807 0.6513068238227911 0.6885820858917278 0.7257785060838178 
0.6179108911057993 0.5785875576850334 0.5472808001201125 0.5242561851870527 0.5096488275444586 0.5034436446028684 0.5054354877119775 0.5151852876929041 0.5319903300680459 0.5548847213014042 0.5826804186242976 0.6140509472445975 0.6476506770156417 0.6822540370596603 0.7168929637463058 
0.6112023870290711 0.5772294288826015 0.5509038100969001 0.5321546182540663 0.5208451685704417 0.5167818868829986 0.5196903131923477 0.5291726137240481 0.5446650763733757 0.5654140212185897 0.5904844819720333 0.6188087459716659 0.6492728024928778 0.6808296884132911 0.7126213946821031 
0.6066802269321288 0.5789666822055449 0.5584386110219809 0.5446603574438834 0.5372017767943148 0.5356773104772529 0.5397392168159663 0.5490372160360323 0.5631630414810321 0.5816004731133574 0.6036991446205061 0.6286843386984754 0.6557063685883563 0.6839236821260386 0.7126053486233409 
0.6024725601461355 0.5816838951157036 0.5676005282375606 0.5594029515665135 0.5563487260885759 0.5578428040389395 0.5634495469035591 0.5728561917031489 0.5858058504526722 0.6020223768559704 0.6211490587537499 0.6427183867056562 0.6661621582141166 0.6908615086204102 0.7162269818592947 
0.5964020283131716 0.5829313903101304 0.5757487877047885 0.5736409860725623 0.5755369940099365 0.5806102931254866 0.5883115045074295 0.5983383638417797 0.6105601768454295 0.624920303112397 0.6413418087030806 0.6596582305124988 0.6795842294749471 0.7007312551288883 0.7226630675234903 
0.5862037242296563 0.5801705843409525 0.580149683445321 0.5845330516227301 0.5919074231820346 0.6011887353805293 0.611677633568486 0.6230396013859066 0.6352253964054589 0.6483558677588278 0.6625987948319383 0.6780638074987045 0.6947352992936372 0.7124538469056312 0.7309458267959578 
0.5698027912307421 0.5710783624679339 0.5782978331631555 0.5894655394859537 0.6028149064559537 0.6169753495245693 0.631053092915906 0.6446259042795731 0.6576653033480993 0.6704100508435705 0.6832202091699761 0.6964411814278132 0.7103021851102168 0.7248647335139904 0.7400256225531997 
0.5456167956604266 0.5538712132216127 0.5682531761235409 0.5863932448816348 0.6061635218864141 0.6258769054980956 0.644395867903186 0.6611467899279265 0.6760506296019112 0.6893925876911416 0.7016607514396952 0.7133855505364013 0.7250082765456346 0.7367988138605449 0.748831724027805 
0.5128383133785969 0.5276009884802344 0.5489432501177772 0.5741413162077781 0.6007015060635287 0.6265916211880566 0.6503803303133328 0.6712763114156478 0.6890744944698393 0.7040300253036677 0.7166895978434465 0.7277134082850419 0.7377189202272354 0.7471705695416565 0.7563289367889809 
0.4716504861291782 0.4923729858512446 0.5203803698289483 0.5526181425656604 0.5862266879078026 0.618804348960963 0.648579855107229 0.6744813056722233 0.6961050115749456 0.7136018966680869 0.7275097474835024 0.738564949111796 0.7475269271647073 0.7550427474212417 0.7615694633387435 
0.4233336904996343 0.44944436692099565 0.4837521595661666 0.5228986594401984 0.5636634766421755 0.6032583285883856 0.6395344898448191 0.6710860787572105 0.6972479108767338 0.718001901981064 0.7338179849000479 0.7454625606169619 0.753808833722274 0.7596791294524506 0.7637404835544016 
0.37023457697712914 0.4011760239969897 0.4413604658795499 0.48715503687497713 0.5349903097215767 0.5816843442191447 0.6246864372026043 0.6622182155932145 0.6933058187819149 0.7177127575423894 0.7357962368940044 0.7483184343146269 0.7562473690247544 0.7605794474234379 0.7622083004961481 
0.31558782568741506 0.3508317632415663 0.39640556764440094 0.4484341634124013 0.503018868189486 0.5565898764554665 0.6061866444593019 0.6496389965274205 0.6856374508400734 0.7136974441500138 0.7340363737039693 0.7473926428476767 0.7548208843681415 0.7574968264098881 0.7565593653151391 
0.2632031238497835 0.30224186295234157 0.3526363571715506 0.4103051527874746 0.4710497121385778 0.5309331940121985 0.5865966564385426 0.6354808195830032 0.675936546762781 0.7072234988700398 0.7294115133266798 0.7432109831657172 0.7497653275293711 0.7504398598659637 0.7466371989266909 
0.2170515162241583 0.25936991090216555 0.313908876676116 0.37642132269560324 0.44244936107945976 0.5077264952785148 0.5685275104443269 0.6219297982854648 0.6659640305036149 0.6996483100769414 0.7229157014333338 0.7364580879013624 0.7415178860936177 0.739662305818208 0.7325725222776538 
0.18080276558242603 0.225838629461669 0.2837115701327897 0.3500560975448198 0.4202077370424312 0.489624867606253 0.554268760722536 0.6109015672089185 0.6572752113744289 0.6922001142269952 0.7154989346255382 0.7278647280241755 0.7306531572509357 0.7256434457220439 0.7148023054780689 
0.15737560795690886 0.20447919987013974 0.26472302677185433 0.33367840603230225 0.4065398229658411 0.478561712042879 0.545463682187956 0.6037605080998724 0.6509853682666739 0.6857903744993391 0.7079250198159011 0.7181083601022017 0.7178224719197627 0.7090615680689708 0.6940725065242411 
0.14856384095776765 0.19696769789305113 0.2584653946992943 0.3286291553997863 0.40259035459961245 0.47548556881811205 0.5428806831042322 0.601126637133434 0.6476114577003632 0.6808882671319275 0.7006756724602131 0.707742896279511 0.7037050214463746 0.6907621674427314 0.6714194580104312 

0.6027996002340067 0.5633551188570886 0.5320185343229885 0.5092651085042914 0.4954042942968886 0.4905195689412031 0.49440666325543436 0.506529448506947 0.5260107992100161 0.5516700388179011 0.582110090054008 0.6158477089995434 0.6514709566501752 0.6878010769756095 0.7240325778338925 
0.5867340973890546 0.5503652229307573 0.5219989552847192 0.5018712623986852 0.49009502643014374 0.48662129667311244 0.49118809684535925 0.5032753697517314 0.5220845031406308 0.5465567075015758 0.5754370709319283 0.607381767669663 0.6410963808162297 0.6754854120971509 0.709788333532193 
0.57644537808236 0.544250732878474 0.5197406468831562 0.5028749149376437 0.49354958724194825 0.4915819884973824 0.4966709584690117 0.5083498539087022 0.5259517192881202 0.5486036577370231 0.5752613065669417 0.6047856241390452 0.6360545804782624 0.6680936460806052 0.7002028809235211 
0.5710268685514907 0.5439864165875382 0.5241419849599778 0.5111464103811689 0.5046605961378461 0.5043641059632764 0.5099277475036119 0.520964278065394 0.5369773648531344 0.5573285453113479 0.5812373569339394 0.6078219945221596 0.636178338851162 0.6654858177246157 0.6951211182302174 
0.5689300975823697 0.5478468106155455 0.5333661238271745 0.5248093362189051 0.5215844708349505 0.5232238631952674 0.5293702853359746 0.5397259565115433 0.5539849651549337 0.5717713493983243 0.5926022377152816 0.6158887360650461 0.6409780378207547 0.6672303246025919 0.694115318599126 
0.5680316098550139 0.553487712689681 0.544931113792073 0.5413332804213326 0.5418312832814538 0.5457935484981015 0.5528211837557638 0.5626970560328429 0.5753031033291472 0.5905302398797279 0.6082042238397184 0.6280454195830448 0.6496716875734342 0.6726433959184522 0.6965397210136375 
0.5658025974251996 0.558136394339245 0.5559119056415291 0.5577387603509064 0.5624642794584914 0.5692684185899138 0.5776825169058436 0.587541443892921 0.5988890484696161 0.6118628186522567 0.6265845946901775 0.6430801731427079 0.661242659330726 0.6808440828529708 0.7015890512765148 
0.5595722017779051 0.5588783557383558 0.5632399454770446 0.5708989190662577 0.5803934942953007 0.5906832460807395 0.6011880605724903 0.6117475328783728 0.622519509600563 0.633844513307395 0.6461056638599686 0.6596112611831161 0.6745201396427049 0.690819711706681 0.7083552265953007 
0.5468572195733422 0.553009570857131 0.5640668663525387 0.5779034250993146 0.5927291478028047 0.6072456527540053 0.6207086879665057 0.6328999457949157 0.6440250853455102 0.6545646835693341 0.6651096277404034 0.6762116614854022 0.6882738684666776 0.7014961096319735 0.7158786904590843 
0.5257156905849523 0.5384079885005074 0.5561438171956293 0.5764354256105989 0.5971464830852404 0.6166800932737331 0.6340682105571435 0.6489617074599363 0.6615352736705643 0.6723329237402261 0.6820865265965489 0.691540685631693 0.7013126865327052 0.7118071703186236 0.723193438124508 
0.4950725766051049 0.5138695788200799 0.5381602137598539 0.5651052981445623 0.5922071980199127 0.6175304083531924 0.6398215672892763 0.6585238783477002 0.6736967695542081 0.6858646638540559 0.6958271123251146 0.7044652122653157 0.7125761107882638 0.7207593261645614 0.7293672082694146 
0.45496456755485915 0.47935441144756974 0.5099869742295695 0.5436870058606849 0.5775851718930508 0.6093716397921528 0.6374500387991876 0.6609821477918747 0.679830105681191 0.6944171812977132 0.705538128912124 0.7141545927270081 0.7212095431784551 0.7274879195920806 0.7335399324389374 
0.4066587550650773 0.436097641264946 0.47277991396612673 0.5132142055430275 0.5541557765173355 0.5928931693376583 0.6274389009612772 0.6566096658756111 0.6799982136894929 0.6978542461141218 0.7109031312719527 0.7201374218549289 0.7266164451861938 0.7313039267695308 0.7349639069384054 
0.3526157441971671 0.3865577898131871 0.42891759509001304 0.4759123815467811 0.523927076636863 0.5698335632737143 0.6112200213028438 0.6465107904557635 0.6749738196890258 0.6966286322915329 0.7120804920137943 0.7223143529093007 0.7284843037472059 0.7317306152417935 0.7330481085482016 
0.29628952429446975 0.33419781627263734 0.38177179344278533 0.43496727646726685 0.48981471583886893 0.5427698744723678 0.5909825829036743 0.6324589222958238 0.6661084936980951 0.6916847390995601 0.709640168728559 0.7209278847520931 0.7267848081687794 0.7285302679251128 0.7274067743254747 
0.2417807640019587 0.2831195844844362 0.33533410048317447 0.39415493207014596 0.4552864548623434 0.5147869109344446 0.5693759637815567 0.6166400905248882 0.6551219436660146 0.6842963428216534 0.7044504036023193 0.7164963851478012 0.7217517367344729 0.7217210216266915 0.7179092882381934 
0.1933832320446338 0.23759539931121942 0.2937448982762165 0.3573806369800341 0.4239231835475994 0.48907133042264356 0.5491463015150136 0.6013393012451906 0.6438430948507162 0.6758648599240104 0.6975331745880579 0.7097244911832729 0.7138421675360661 0.7115832950083577 0.7047252858561303 
0.1550809575437636 0.2015574771906744 0.26078724694870936 0.32818932239343734 0.3989572586702502 0.4684880942804171 0.5327594628275731 0.5886162635894922 0.6339424267522032 0.667709707488945 0.6899116646967155 0.7014047129999713 0.7036875727664444 0.698654533288499 0.6883565236810488 
0.1300634573005589 0.1781145856771872 0.23941531146165318 0.3093158369068436 0.3828538150110933 0.4552006286775946 0.5220660928109815 0.58001932018866 0.6266966197617115 0.6608833898041494 0.682473600126438 0.692325250329925 0.6920411763311934 0.6837104757244234 0.6696462048150841 
0.12032608151074597 0.16916308814889458 0.23138351253257305 0.30233896667223414 0.3769953562328332 0.45039028191606323 0.5180585904137862 0.5763808399018768 0.622821543123966 0.6560397074879145 0.6758710438866136 0.6831968519260724 0.6797269111709842 0.6677312343918013 0.6497575977179881 

0.5664570961402605 0.5362933023471612 0.5138348689329042 0.4991605603001879 0.49224928669119916 0.4929296636735116 0.500824074531647 0.5153073770717702 0.5354982437913788 0.5602950769712183 0.588459589424192 0.6187410981442758 0.6500251913781546 0.6814834666791124 0.7126978758697842 
0.5490560210417037 0.5220542171257224 0.5025910639232212 0.4905203388929937 0.48564456025866315 0.48768384485227595 0.49622796078517806 0.5106913248597547 0.5302903639130278 0.5540581293649333 0.5809031884623027 0.6097100870434391 0.639468909250532 0.6694135017846014 0.6991433434119495 
0.5385167291250994 0.5155892847760115 0.4998021168927652 0.49075645184741823 0.4880678668281439 0.49135619607568204 0.50020583157082 0.5141154552741751 0.5324579344442905 0.5544683544095552 0.5792715533375646 0.6059513541469729 0.6336537133707753 0.6617071294683792 0.6897375947493444 
0.5340557533022676 0.5160017797223102 0.5045024180381938 0.49888300645161815 0.4985615955928578 0.5030613090544427 0.5119793970728612 0.5249309687577033 0.5414892354809214 0.5611433057406393 0.5832894464091319 0.607263343344978 0.6324109015794049 0.6581854416739351 0.6842516312306856 
0.5341063213498697 0.5215682860071053 0.5148822058141185 0.5130778388012266 0.5153629733292525 0.5211594948292538 0.530082218153896 0.5418770498417825 0.556341090684111 0.5732485845470802 0.5923031594547993 0.6131294212090991 0.6353071493258035 0.6584410088712881 0.6822497917631449 
0.5363897653113688 0.5298224905659014 0.5283775753445027 0.5307727787242994 0.5359893077984814 0.5433328473596621 0.5524239146830204 0.5631322743607713 0.5754783563755197 0.589528055914693 0.6053056300527812 0.6227432038987456 0.6416759801551876 0.6618814518108335 0.6831507792983578 
0.5381081324935608 0.5377644238778923 0.5418869822989488 0.5488682802841426 0.5574424559546594 0.5667726742167539 0.5764555609847811 0.5864551670737906 0.5969891727006317 0.608395601113119 0.6210085242294854 0.6350663875623099 0.650667771887056 0.6677783896593505 0.6862819466676936 
0.5362447967136107 0.5421793394247999 0.5520969103429486 0.5640546087714826 0.5765151722352059 0.5884621925282308 0.5994219792052737 0.609401764958857 0.6187660601712328 0.6280805621935553 0.6379551503309572 0.6489141282173642 0.6613138949337676 0.6753172469416496 0.6909215842351867 
0.5279398042986236 0.5400299264528842 0.5558788176465675 0.5732015663651899 0.5901625358661645 0.6055200883211747 0.618669884213851 0.6295931841089366 0.6387303041389352 0.6468088780993373 0.6546606048963346 0.6630583913726998 0.6725988688686021 0.6836446122113278 0.6963280159905247 
0.5108905995512304 0.5288696399125489 0.5507039176515698 0.5737637187843415 0.5958873827813129 0.6155572289399894 0.631968715929465 0.6449954887672148 0.6550680110774036 0.6629947026447486 0.6697603791116056 0.676336710916034 0.6835337468783947 0.6919115301730768 0.7017583650307956 
0.48371975478524903 0.5072166739726953 0.5350147845683817 0.5641411546816446 0.5920823319662197 0.6169930640409568 0.637795840204543 0.6541696564618552 0.6664424485804622 0.6754143647137211 0.6821466945650135 0.6877529429586212 0.6932243200129419 0.6993128366891567 0.7064829957028603 
0.44625138751665594 0.4748293614939565 0.5084949220383321 0.5439385433497897 0.5782740288021535 0.6092813317171094 0.6355407283977509 0.6564520700751902 0.6721495510045236 0.6833364245368035 0.691073403772058 0.6965579388227768 0.7009289757548757 0.7051239410522213 0.7098031313032337 
0.39964760127733123 0.43283483613036233 0.4721893861959121 0.5140775961861174 0.5552274605452251 0.5930063591056334 0.6255934498186252 0.6520354341993928 0.6721914639332313 0.6865879735315349 0.696215057577243 0.7023012558615774 0.7061027925032175 0.7087369353453256 0.7110785553300251 
0.3463744237505647 0.3836822575213942 0.42844972148243066 0.4767382679480759 0.5248878673225034 0.5698297701650937 0.609299676226476 0.6419347965398091 0.6672553842841967 0.6855471039748469 0.6976728242888423 0.7048494281444502 0.7084262876228665 0.7096973697279471 0.7097696336990417 
0.28999073188482416 0.3309169059626318 0.380701813404706 0.4351290505330343 0.4901618018803292 0.542289839212033 0.588784669396519 0.6278410117110812 0.6585996383221608 0.6810629483942047 0.6959280849067715 0.7043711171699258 0.7078187919031742 0.70774153460845 0.7054936077558179 
0.2347798590371375 0.27879811323597425 0.33306180046603107 0.39311253469186447 0.4545634153403747 0.513478405665285 0.5666690615079031 0.6118815712321447 0.6478634513745987 0.6743159035863512 0.6917523309240662 0.7012938395894984 0.7044374603714111 0.7028319615245462 0.6980900607845346 
0.18526780549494126 0.2318080466411756 0.28984864617452744 0.35473485852717335 0.42177306060588593 0.48663946372900235 0.5457162755324724 0.5963233108094036 0.6368287765711133 0.6666397428197347 0.6860881796772033 0.6962402578466445 0.6986633922061802 0.6951866321315251 0.6876857541710816 
0.14569027301234205 0.19411588108861055 0.25505851676036206 0.3237230455893122 0.39516935156533683 0.4647460906690895 0.5284623503574993 0.5832606833945043 0.6271699107970764 0.6593328213188462 0.6799199562134571 0.6899538124977712 0.6910763446861469 0.6852957097386708 0.6747457927756718 
0.1194800612281931 0.16906996567809263 0.2318729952251266 0.3030200099983057 0.37740056958774926 0.45011620670548547 0.5168819412213587 0.5743355674979786 0.6202282745673271 0.653486678567876 0.6741529090015211 0.683223669960637 0.682419342017556 0.6739190793669078 0.6600972359059346 
0.10884506321019816 0.15878781088557803 0.22226919842530957 0.2944221835882985 0.3700559676031454 0.44412213874907636 0.5121388891525354 0.5705296409518693 0.6168454824820032 0.649856980190013 0.6695177974418395 0.6768177433001535 0.6735544000285126 0.6620590085001172 0.6449133281748448 

0.535355520136921 0.5160040192865099 0.5036868545387917 0.4980703483574576 0.4987970170099904 0.5054430150473436 0.5174663501136377 0.534167039654786 0.5546779314196847 0.5779984455171426 0.6030742165427249 0.628915231610861 0.6547355005978484 0.6800903671019054 0.7049846510589041 
0.5166036086654968 0.5005378919802563 0.4912910105060102 0.4883174525459463 0.49110241248048286 0.4991363761715763 0.511868676640977 0.5286611034105316 0.5487620379830673 0.57131661800741 0.5954200801120572 0.6202112798307683 0.6449933483459757 0.6693604272128596 0.6933049962340315 
0.5056660367518515 0.4935564789795335 0.48780292060089625 0.48763076437025893 0.49236782685022185 0.5014372135493262 0.5143158830561306 0.5304796156396117 0.5493565332039841 0.5703080931221619 0.5926493151772866 0.6157103124628093 0.6389308405707225 0.6619705286341063 0.6848114588664632 
0.5019709251049865 0.49438206745920704 0.49248428035444214 0.495259012209339 0.501874677722545 0.5116988168974852 0.5242617697566551 0.5391918993381316 0.5561459987851282 0.5747572308907293 0.5946171990022501 0.6152997440318585 0.6364235665389363 0.657740791371181 0.6792310246706509 