# vtk DataFile Version 3.0
vtk output
ASCII
DATASET STRUCTURED_POINTS
DIMENSIONS 15 20 65
SPACING 1 1 1
ORIGIN 0 0 0
POINT_DATA 19500
SCALARS Image float 1
LOOKUP_TABLE default
1.0417582314273695 0.9524490228154247 0.847209050306989 0.7321376358780517 0.6155169042584262 0.5065797747601052 0.4141804567737002 0.3456850354965457 0.3062727793893948 0.29866719099186867 0.32317211400553936 0.37782845671860454 0.45854851358563 0.5591998257914044 0.6717390806461687 
1.0983274049324026 1.0027841462565097 0.8905023867098658 0.7675829414810285 0.6427865090626191 0.5262464968789987 0.42795347842168285 0.35637734200989213 0.3174901504872306 0.3142834130658686 0.34671022106659244 0.4118883855906008 0.5044038689234948 0.6166385922071017 0.7391614887653968 
1.1425808500650487 1.0419309552116212 0.9248319575637075 0.7972602660241662 0.6681723805257096 0.5481905837942934 0.44795368410660763 0.37653813426455773 0.34027349153367403 0.34210926277872544 0.3815093332922965 0.45472432664924856 0.5552605291490784 0.6744219679433021 0.8019063443395853 
1.1724146259929478 1.0678922873506973 0.9481422290373765 0.8189634789127863 0.6892886017687596 0.5698629874266408 0.47151178249447123 0.40342934177832424 0.37186324447721086 0.37940004815344497 0.42486353640920727 0.5036823908099447 0.6085218416123186 0.7300091277233245 0.8574797464556043 
1.1869649192556477 1.0798942909860472 0.9594363839399233 0.8312323762563724 0.7040553877312234 0.5884952636590699 0.49518443885889907 0.4330197731997698 0.40778731381361544 0.4214335439179453 0.4720167925258293 0.5541945530863377 0.6600140224156543 0.7797902339020879 0.9029501488413958 
1.1865043019346968 1.0783499623977009 0.9588740019679793 0.8336309438289489 0.7111806461930271 0.6017825942543222 0.5156139739667659 0.46097753678112674 0.442928576133892 0.46258790816159234 0.5171866296018524 0.6006904105962465 0.7047412273332223 0.819657605477408 0.9353286862146791 
1.1721531301271093 1.064613090249698 0.9476531206409812 0.8268279280564357 0.7104875190900476 0.6084802471872105 0.5303872314307092 0.48375721330545385 0.47278226833420867 0.49769317010516445 0.5549233065495525 0.6378759829945724 0.7380030925160268 0.8458962017626122 0.9521882263945293 
1.145519928348657 1.0406106621964055 0.9277187246213631 0.8124597575741255 0.7029957044723663 0.6087455535027078 0.5386535981123632 0.4994800814795195 0.494556082009988 0.5232841296467304 0.5814301358188079 0.6620261065317921 0.75656325071002 0.8561410884071784 0.9523397678005497 
1.1083937373969388 1.0084670426722422 0.901381485163215 0.792812058601198 0.6907308249577828 0.6041286205101654 0.5413317481533552 0.5083676868327806 0.507815137409472 0.5384158207774814 0.5954866721327906 0.6719368407841086 0.7595445126781437 0.850129593042426 0.9363647869543078 
1.062581817014049 0.9702245920120988 0.8709481351426347 0.7704020428140751 0.6763098503726841 0.5972128999122652 0.540850916846302 0.5126162434297381 0.5145040849776572 0.5448277247636029 0.5987295535619028 0.6692802196842114 0.7488021611414308 0.830030962268972 0.9068385972347867 
1.0099278243604806 0.9277266203657114 0.8384543242015334 0.7475677928826469 0.6624114722528471 0.5910042208371965 0.5405027756639612 0.5157556947248415 0.5183520819451639 0.5464233192762915 0.595222431890279 0.6582665213144794 0.7286672813678929 0.8002481382261116 0.8681593967913329 
0.9524770629284571 0.8826718584478347 0.8055559205388783 0.7261657710343785 0.6512716424184087 0.5882369478778195 0.5435880516877727 0.5216792011159253 0.5238349247495876 0.5482168765070021 0.5904370675981393 0.6447030118104828 0.7051171841644437 0.7667223757097675 0.8259967007554418 
0.8926979877654888 0.8367920098439273 0.7735857158319531 0.7074460937033968 0.6443373997627291 0.5907889812742 0.5525979945092119 0.5336173249126862 0.5349860627921768 0.5550391558531047 0.5899204717516964 0.6346929785648572 0.6845750032514109 0.7358949103605761 0.7864643425883222 
0.8336409359437761 0.7920624080424903 0.7437331136485474 0.6921247543081834 0.6421681247693016 0.5993666744453536 0.5686591956397786 0.553342322683219 0.5543832438037082 0.5703508752758466 0.5979979559526927 0.6333046253567038 0.6726282154129785 0.7135594803266943 0.7551845816782823 
0.7789255282445157 0.7508425083632062 0.7172682333576705 0.680616467879626 0.6446040361415054 0.6135444625056015 0.5913943562834012 0.5808193382984584 0.5825819136914712 0.595474010827665 0.6168413621498396 0.6435359576482593 0.6729659527004536 0.7038574707749288 0.7364283810783214 
0.7324954687020184 0.715861911412121 0.6957187617414854 0.6733460319728202 0.6511457180319067 0.6321428246190305 0.6192324373817226 0.6143925524669873 0.618136975213732 0.6294289590508446 0.6461241975755911 0.6658136953106264 0.6867689056684876 0.7086233490764187 0.7324921871984202 
0.6981506861533334 0.6900136323755965 0.680921337696613 0.671032496541305 0.6614265567671564 0.6538300368981463 0.6500723285963533 0.6514416159602734 0.6581879040914724 0.6693956508077519 0.6833226883467315 0.6981184528708828 0.7126646803484046 0.727197523282655 0.7434140959123707 
0.6789416050092075 0.675976459241268 0.6749055951183089 0.6748457519588398 0.6756295894068196 0.6777654897292622 0.68210084491016 0.6893095799537999 0.6994250160263182 0.7116463187470328 0.7245495008132712 0.7366660248972515 0.7472201011232795 0.7567130473198347 0.7670594830309505 
0.6765667102355286 0.6757454028194962 0.6796183992093878 0.6863685679273657 0.6947106625495301 0.7040846634744966 0.714517663596973 0.7262253704693135 0.7391501713155622 0.7526732951544022 0.765671674079565 0.7769391635607108 0.7858176821952351 0.7927607106752479 0.7995366235539002 
0.6909348422094423 0.6901869130414549 0.696544932261859 0.7073503661489093 0.720339346993874 0.7340642606317863 0.7479408943817072 0.7619434337086834 0.7761216624475751 0.7901897872258181 0.8034010859013111 0.8147898978057408 0.823686726296796 0.8302677706064034 0.8358512067622653 

1.1047505706246203 1.0217812401005577 0.9182300702485958 0.8007865554466522 0.6786809425681366 0.5622788606699014 0.46159320797511594 0.385041961175987 0.33864169075868833 0.3256519847776119 0.3465479803761913 0.39914799699707737 0.47877106230960487 0.578411424921214 0.6890321895250675 
1.169243109340205 1.077742449249385 0.9647463666718422 0.8372792713555631 0.7053297121949004 0.580333050259215 0.4734621404707198 0.3941117848059894 0.34884089200462476 0.34085653752985967 0.3699605150863069 0.4327911170574632 0.5232029959029416 0.6327140019504232 0.7510551559207737 
1.218717987332595 1.1195996150908571 0.999372585166783 0.8652224991705489 0.727547934851515 0.5983736148146662 0.48948618641045527 0.41072373367127923 0.368743843046225 0.3664111925560226 0.4027593744627552 0.4733600868134521 0.5709093676316532 0.6859041004641656 0.8073847277536299 
1.2509312518659514 1.1454023071820536 1.0202821956220811 0.8827972720207982 0.7434555663225442 0.6144280767456698 0.5075948803398144 0.43272000083373696 0.3961260269237674 0.4000523870070525 0.4426755310366497 0.5186185856860744 0.6197259392857128 0.7359237605706952 0.8560892286523615 
1.2653087980247146 1.1548648909131747 1.0271491823725292 0.8893650469567499 0.7519027232974614 0.6267189540121768 0.5253519031875824 0.4570556526775821 0.42745652848659466 0.43794403561633255 0.48578761070020493 0.5647955850946406 0.6662572722139288 0.7799412862711006 0.8950275465821749 
1.262753392261092 1.14921965059522 1.0211150292813502 0.8855975337272275 0.752788944726601 0.6341753794066318 0.5406394129616601 0.48061671235341963 0.4587966462654197 0.4755954860754179 0.527396981704064 0.6073612267393278 0.7065090923724389 0.8148126911500656 0.9221321903396026 
1.2451974160256292 1.1307929409507684 1.0044749785846474 0.8733457828493544 0.7471668455990921 0.6367971838652071 0.5522802750376103 0.5010706781395023 0.4868246172904135 0.5089879349241068 0.5631725330325421 0.6421044757429992 0.7368199498631608 0.8378030954844896 0.935877100942777 
1.2150530057546647 1.1024328475404788 0.980168634419957 0.8552739918674859 0.7370853717271777 0.6357523498372398 0.560407718802685 0.5174972410244547 0.5096878413068523 0.5355839876266377 0.5902352067633196 0.666200387374513 0.7548183799308491 0.8473495348450019 0.9357785809716356 
1.1747277944272037 1.0669483693456239 0.9512069976865971 0.8343440722958521 0.7251981066537587 0.6331633515913384 0.5664650042908698 0.5306127171012397 0.5274376223646499 0.5549333315314167 0.6078741150226374 0.6789611923314074 0.760126136200602 0.8436344144698864 0.9227658325699034 
1.1263410690079292 1.026706379635475 0.9201791993503604 0.8132755785225763 0.7142275297875192 0.6316270396779978 0.5728250888662301 0.5425204054220827 0.541923705970357 0.5687056959902986 0.6176935178663869 0.6820569954745354 0.754600828438694 0.8287922142232342 0.8992934559232135 
1.0717029271465832 0.983478703795362 0.888955330257081 0.794111946524844 0.7064187722164471 0.6335914548181626 0.5821316504722892 0.5560567981763924 0.556181450086072 0.5801457756948978 0.623151018210384 0.6791406774739444 0.7420393441479041 0.8066730436799434 0.869138598755262 
1.0125299713396936 0.9385536562493977 0.8586447620420828 0.7779963467807951 0.7031240905000847 0.6407588811092545 0.5965465710139435 0.573921320221303 0.573489295025186 0.5931072349338371 0.628616198693525 0.6749749440692052 0.7274096302195596 0.7822053645289069 0.8369086012334408 
0.9507917838878506 0.8930466827118414 0.8297979380346532 0.7652058554730737 0.7046289392849664 0.6536838705581951 0.6171210435347335 0.5978417909013046 0.596367786225159 0.6109391580534463 0.6382088547451361 0.6742922687501403 0.7158023642096121 0.7605037079730695 0.8073576249615917 
0.8890363907325871 0.8482857753228303 0.8027730106186077 0.7554250941149037 0.7102692188723116 0.6716867581239112 0.6434779742876318 0.6280207072735338 0.6258078999251843 0.6355368193820171 0.6547321570127991 0.6806855171678312 0.7113632392910567 0.7459287202700013 0.7846545157040019 
0.8305439473448186 0.8061253803652626 0.7781445288682189 0.7481773592023601 0.7188124736919171 0.693119312064163 0.6739094908145356 0.6630303275546956 0.6609516048655841 0.6668198738848419 0.6789848116438644 0.6958122590080102 0.7164648330330812 0.7413125835306469 0.7717502132380909 
0.7792061816046669 0.7690634483677681 0.7570210699863744 0.7432888856091948 0.7290035179031198 0.715921714281202 0.7058775801174771 0.7001985078093735 0.6993198580806747 0.7027797205350272 0.7096281878013977 0.719105905006336 0.7313080393470166 0.7475148463353232 0.7699635901363413 
0.7391112886815843 0.7400940165797851 0.7411646376576646 0.7412513791637226 0.7401265318761892 0.7383254539703679 0.7367898690923542 0.7363871798088581 0.7375283469068135 0.7400783609356973 0.7436308111966184 0.7480487037005532 0.7540283855836268 0.7633881532256995 0.7788510551623169 
0.7139066954172488 0.7223060790080771 0.7328596721209322 0.743372388481086 0.7524247432191844 0.7595086153349345 0.7648386866868079 0.76895028181029 0.7722924121534045 0.7750280506528433 0.7771565597543382 0.7789141646422597 0.7812548409791685 0.7861351083829544 0.7963638676422361 
0.70608872398312 0.7183166881860984 0.7345489523018895 0.7516566700632046 0.7672495571874397 0.7800128863383757 0.7896639494378112 0.7966003018639307 0.8014383246057897 0.8046765012402705 0.8066468590790976 0.8077694618782133 0.808962115214532 0.8119525331494886 0.8192438021613787 
0.716406075353254 0.7296807798630784 0.7483192062027607 0.7684311757062255 0.786876809208775 0.8017864778875102 0.8126382373434047 0.819929225407794 0.8246318690072052 0.827694482003313 0.8298015832463352 0.8314716865326521 0.833398293445953 0.8368076331042485 0.8435736431699695 

1.1768807344702628 1.0997487357106557 0.9972981098212418 0.8769805916199024 0.7490658535284207 0.6250486387431118 0.5160053472470638 0.43123760549576984 0.3773880220570299 0.35803509202723927 0.37364159896710214 0.4216899128717725 0.4968914817310255 0.5914675625159145 0.6956007609822903 
1.243301895283456 1.1560871828602626 1.0427872353794645 0.9114839004412236 0.7734091676625658 0.6411947651093437 0.5269888419978912 0.4408396658381748 0.3896037272210825 0.37644522731529473 0.4008308081061591 0.45884329332314056 0.5436566555927437 0.646103136559609 0.7553648883746464 
1.2920374709713716 1.195471537196563 1.0735321789699448 0.9346967575658754 0.7907418794180265 0.6548933674246598 0.5397823936364444 0.4556560300565238 0.40915724153372124 0.40278895548127835 0.43498724074364536 0.5006141517605907 0.5916683984469105 0.6980835914514933 0.8085871892442623 
1.3212280308692264 1.2164566899748461 1.088310050022732 0.9454644055194166 0.799861881567979 0.6648154554870017 0.5528831053271589 0.4739927081371288 0.43417449620112447 0.4350497910076616 0.4740131428546689 0.5449016411973794 0.6389072862782577 0.7455472307218488 0.8536151800017896 
1.3310858749195662 1.2196858352918607 1.0878346171715776 0.9442564236201204 0.8007480184027629 0.670286603573633 0.5648932881442625 0.49375232841266214 0.46196893503145464 0.47013503692949876 0.5146435985300052 0.5885256829934424 0.6825267108999464 0.7861890619077866 0.8888246039072797 
1.323552629362067 1.2075781291740142 1.074544351942373 0.9331080153047406 0.7946859857988449 0.6716055843490694 0.5750172965830693 0.5130748032629456 0.4897765035840319 0.5046465551133649 0.5531923838053083 0.6278920260108651 0.7193924542336891 0.8176464932290308 0.9128424601636157 
1.3016428275882685 1.183678586848716 1.0520477962464385 0.9152369937877836 0.784112775999203 0.670146617679096 0.5834238793320959 0.5309343726500895 0.5155374497675711 0.5357785327309725 0.5864855982101238 0.6598789376379794 0.7468456640969283 0.8380757788639583 0.9248943406519308 
1.2686708079821958 1.1518470402311227 1.0243621423416385 0.8944147960195826 0.7721891843531407 0.6681811111918808 0.5913383134496013 0.5474943453605741 0.5384777269065667 0.5620652654814882 0.6126975948381566 0.6826732812663636 0.7634503487981332 0.8467303368822341 0.9251488553927121 
1.227579172141691 1.1154983447874431 0.9951313758185591 0.8742337324026235 0.7621835614285819 0.6684332264902623 0.6008061830464045 0.5640920435505721 0.5593028783604328 0.5837477656631946 0.6318339660201742 0.6962993698818027 0.7694907019079529 0.8443499567185866 0.9149301899355214 
1.1805460751738666 1.077083756678574 0.9670122254643196 0.8574414413018057 0.7568054852608739 0.6734630289970963 0.6141690028988789 0.5828371105746548 0.5799328382476796 0.6026410539469398 0.6457102847312346 0.7026737122334547 0.7670559889563802 0.8332242629109713 0.8967077418794673 
1.1289586566602512 1.0379307005440424 0.9413695660618339 0.8454994179278327 0.757649846485803 0.6850289061787935 0.6333829336826159 0.6059246740155526 0.6028436117769614 0.6215311622341808 0.6574219920065525 0.7051552472896143 0.7596685454357125 0.8168865527088132 0.8738356684480769 
1.0737273035676314 0.9984556800937656 0.9183405688047599 0.8384687503668914 0.7648929088155152 0.7036000725391514 0.6593689941354217 0.6348566441450247 0.6302017144597477 0.6432698466242981 0.6704479853805454 0.7077043151651665 0.7515390602131526 0.7994974176737888 0.8500849586331766 
1.015812432933189 0.9586611404794158 0.8972306208751477 0.8352461247152227 0.7773255610860732 0.7281630178593597 0.691588708697757 0.6698025690485082 0.6630449486722796 0.669826197772199 0.6876364928792448 0.7138739588408807 0.7466364795914944 0.7850620719803828 0.8290661172966249 
0.9567712573589925 0.9187498381848355 0.8771189205437073 0.8340867181356213 0.7927283073376966 0.7563976595855464 0.7279892639357066 0.7093036124654932 0.7007586122577418 0.7015718723599227 0.7103572969389497 0.7259040447754646 0.7478097285429031 0.77666852434358 0.8136672243242125 
0.8991245589559628 0.8796601889054815 0.8574994714866828 0.8332793491093609 0.8085072609821653 0.7852060192946798 0.7653685560186637 0.7504353975870011 0.7410198210979841 0.7370154758799392 0.7380600123490941 0.744160358791855 0.7561829557704645 0.7759258064080505 0.8056249278167023 
0.8463948216957271 0.8433505896545488 0.8387768699360769 0.8318009667911999 0.8224419806069146 0.8114820958113704 0.8000971275308305 0.7894206598040732 0.7802547457840596 0.7730786671826214 0.7683669701701401 0.7670666005593506 0.7709715667456847 0.7827272148422565 0.8053097982894432 
0.8027626861779976 0.8127324969744463 0.8224767222603151 0.8297818038470697 0.8333622191176713 0.8329412023245228 0.8290313321939509 0.8225547149010821 0.8145092744569835 0.8058559805505285 0.7976827045703879 0.7915443028141158 0.789755198463725 0.7953801221145995 0.8117549972218703 
0.7724017858081547 0.7912511623694609 0.8111066762430538 0.8286583253609621 0.8415811297701145 0.8488000611237895 0.8503886983332047 0.8472111918462931 0.8405129352872084 0.831663945097837 0.8221608217603462 0.8138412527504861 0.8091273252119929 0.8110553115648248 0.8229041475301145 
0.7586509072339955 0.7822123992255622 0.8076959007386276 0.8309672739566939 0.8489659189135316 0.860124457899844 0.8643512771411462 0.8626597298233788 0.8566527674296398 0.848100622457088 0.8387718336859701 0.8305294577353913 0.825550654839881 0.8264385521993634 0.8360145248728241 
0.7632392428806606 0.7880268387899108 0.8151247595030475 0.8398219974078209 0.8586113217844435 0.869734919086242 0.8732195797948306 0.87046306096554 0.8635866504799867 0.8548275894704717 0.8461883619309034 0.839414874464892 0.8362055184605016 0.838431852920511 0.8481332641330452 

1.2521186168188994 1.1791088642846332 1.076367208005928 0.9522656909110463 0.8181532841227184 0.6865758838239193 0.5694975874051706 0.47686458267427123 0.415685968002402 0.38962384428514363 0.39895831575789353 0.4407620231864793 0.5091795720821239 0.5958154466102792 0.6903257224815125 
1.3145111003617915 1.2307927346173078 1.1169606421277618 0.982248605758749 0.8390781889416122 0.7010899550473014 0.5811237850122969 0.48955379332405624 0.4332188750871583 0.41498954749258954 0.43385105354244413 0.4853127271129709 0.5619826854162522 0.6542403881635841 0.7510372896948508 
1.3567499485339163 1.2629616330181848 1.1402937796031527 0.998535510171925 0.8506936947952526 0.7109087337784101 0.5922842776871583 0.5050845716401499 0.45559201781947634 0.4457022997484035 0.4731447965061716 0.5321125165105608 0.6140880082010937 0.7087341416698658 0.8048247727064872 
1.3778352402547303 1.2750638083190635 1.1460325490761507 1.00080848062671 0.8525334751416939 0.7152952532687276 0.6018952768955192 0.5219986427909933 0.4809940263162672 0.4796653436613394 0.5145639033488648 0.5788389231766732 0.6632651268456421 0.757281569437933 0.849972752778475 
1.3792067208332777 1.2690317413857757 1.1361974747290344 0.9908120461643857 0.8457718555245544 0.7146511417724999 0.6094881937705731 0.5389683385133226 0.5073515080423184 0.514258603659171 0.5552006143931207 0.6225825504036371 0.7068792437549827 0.7977523508047406 0.885007464044498 
1.3641980698276042 1.2487580621383472 1.1147356915031066 0.9720791232738761 0.8331403525630697 0.7106370695454841 0.6155240796071233 0.55527437785419 0.5329232725900643 0.5469922424667217 0.5921675433482718 0.6604419439086213 0.7423822906861022 0.8282579599336373 0.9089085333830579 
1.3371274879958766 1.2191798883814915 1.0866919037119884 0.9492690746735453 0.8184933228474258 0.7060010394003795 0.6214914222670376 0.571152050138557 0.5568488920096273 0.5761923104480807 0.6233433358472549 0.6902489161815739 0.7679429405363971 0.8476245439789549 0.9213821877576243 
1.3022745332280994 1.1852035252184896 1.0571713639664218 0.9272548319952268 0.80609144780709 0.7041092484062121 0.6297090163525418 0.5878620938926171 0.5794558376288357 0.6014884733873546 0.647967680855178 0.71118782977792 0.7830061022011006 0.8558159180466234 0.9230856306115066 
1.2630153363828358 1.1507381997853805 1.0303400929464068 0.9101621762324368 0.7997486113349073 0.7082570243381556 0.6428388930710667 0.6074208891776667 0.6021981151284495 0.6239295099725353 0.6668830985136367 0.7240997312474822 0.7885887877196321 0.8541508489846297 0.9157021849349777 
1.2213361117403492 1.118073520629786 1.0086975280982784 0.9005812531720571 0.8020320008555891 0.7209065368206156 0.6632037982307587 0.6320281222816262 0.627209717692423 0.6456622271120973 0.6823238164864575 0.7313527878534032 0.7871941232987236 0.8452168999598532 0.9018093570028378 
1.1778337114591786 1.0877406037993946 0.9927875303270998 0.8991333712523799 0.813704316001979 0.7430338005156456 0.6920738018148088 0.6633290946457477 0.6565764649882335 0.6692416711324787 0.6972863207565674 0.7362871086053383 0.7823357187352884 0.8324707446051163 0.8845426892425443 
1.1321731731164917 1.058867191298999 0.9814033513767677 0.9044938415076009 0.8335492640622815 0.7737580553927571 0.7291159071863151 0.7017139529774372 0.6915246961441575 0.696756556297137 0.7146428201001483 0.7423678044750837 0.7777780734833379 0.8196056594018317 0.8671180465442192 
1.0838441748818206 1.0299072775165414 0.9722192002049486 0.9138641278089027 0.8586372102603066 0.8103714108495641 0.7721779021185382 0.745866581470674 0.7317662234658926 0.7290196091318962 0.736241230224518 0.75226890817727 0.7766826009522271 0.8098346067998622 0.8523160925498329 
1.0329759842267991 0.9995298788314133 0.9626766619159073 0.923780137303968 0.8849864356101254 0.8487970993817192 0.8175058178795295 0.7927256849435527 0.7752120606113275 0.7650679523487858 0.7622493315605106 0.7671372961573617 0.7808797503596412 0.8052632621754393 0.8420439923929894 
0.980955895275407 0.9674142048291265 0.9508943917919196 0.9310639878868052 0.908481111365537 0.8844016829412509 0.8603895073297618 0.8379204920780069 0.8181777315124112 0.8021433441319609 0.7909417483542152 0.7862426010076028 0.7904576061595696 0.8065054058125811 0.8370691173514475 
0.9306526137175772 0.9347283545097894 0.9363684560375535 0.9336931914720734 0.925842806453321 0.9129954335806295 0.8961190760141959 0.8766186715575238 0.8560732932064747 0.8361955987478356 0.8190121231974827 0.807118423784799 0.8037754950982448 0.8126309007332124 0.8369753596757026 
0.8861575142888096 0.9041566930494882 0.9202875472535772 0.9313816799839696 0.9354342511646574 0.9317993647576981 0.9210454593229844 0.904607522792246 0.8844362335876754 0.8628090163547805 0.8423511370626255 0.8261699833569173 0.8179009126918431 0.8214525168401468 0.8403386410882185 
0.8520923362722405 0.8794631301230016 0.9053866650809683 0.9257361519718129 0.9377074795919698 0.9401526194631515 0.9334961146445133 0.9193534094183299 0.9000622502279736 0.8783305542771285 0.8571027854957168 0.8395995284908455 0.8293600542043704 0.830075770469033 0.845070085878179 
0.8326546112807628 0.8647010722852022 0.8953790281623836 0.9199518688251432 0.9351863759212202 0.9397835864185553 0.9343151366976609 0.9207711854905614 0.9019469608657464 0.8809135582439721 0.8607318033903731 0.8444169938229188 0.8350154020107118 0.835577519703596 0.8488457025421423 
0.8306486729980795 0.8632735965689426 0.8941097109206645 0.9181199571626245 0.9319783215453663 0.9345622375623133 0.9268744082298886 0.9114913844994543 0.8917842759008103 0.8712009335582385 0.8528261609281775 0.8392816138243213 0.832857627989793 0.8356581834772054 0.8495360489705607 

1.3241878916325447 1.2526450969950285 1.1476955737487036 1.0187517318304475 0.8782158109295246 0.7395295006042901 0.6152962718773086 0.5158137468563333 0.44817114522826607 0.4158819433799269 0.4189025945503221 0.45386872661179045 0.514449397517083 0.591828370650122 0.6754043554105882 
1.3773953461171995 1.2954865955506423 1.1803720889112967 1.0424756530336718 0.8952803130514907 0.7531740231133592 0.629347237288289 0.5341421316092414 0.47406671471863027 0.4514786632189334 0.4647885074072363 0.5089752373404788 0.5762500100881676 0.6568042747595834 0.7396745878167477 
1.4083777494342802 1.3167913996913532 1.193899175602887 1.0507506841244012 0.9013570040243044 0.7604201027393007 0.6411039463543747 0.5532923204372606 0.5025898805171227 0.4900959223249821 0.5127952515361672 0.564322703366272 0.6358786471135123 0.717168861807613 0.7973526874919388 
1.4173598608380649 1.317169883901989 1.1889921861981496 1.0441437399849713 0.8966541536385376 0.7609631232823644 0.6496599924609069 0.5717378597490297 0.5316466297049306 0.529188957272546 0.5600946095113678 0.6169961117394633 0.6905326484892449 0.7704038903159167 0.8463217464259173 
1.4073338901546113 1.3000741958722457 1.169105750619327 1.0256973387985453 0.8834658838815879 0.7561176476700601 0.6552404517945909 0.5886297344330756 0.5594461283759087 0.56625376483902 0.6037635477398656 0.6639747209374427 0.737400530369756 0.8141600006715966 0.8848605939601412 
1.3832687858054196 1.2710299785345638 1.1397677847916838 1.0004293696077862 0.8658797784682271 0.7487508830055472 0.6593549831513956 0.6041409326828936 0.584991069324321 0.5994061240031241 0.6413904565995332 0.7027070359591179 0.7741569720403009 0.8466382785353019 0.9118974558901263 
1.350916052265251 1.236429785210846 1.1074581064478066 0.9743823096381713 0.8490620242027968 0.7428433587312679 0.6646451014462087 0.6195829927849731 0.6084208819253758 0.6278891699653387 0.6716725337403857 0.7317196013623364 0.7995092254956184 0.8670126690455215 0.9272648495240944 
1.315520030136854 1.2021802539094757 1.0782863021462106 0.9534209757120071 0.8382505285103514 0.7427317371177172 0.6744048600458941 0.6372045289735077 0.6310608626815367 0.6523224947248064 0.6947969044355014 0.751052438118269 0.813607552014289 0.8757422890959589 0.9318535083534175 
1.280761074333527 1.1725308577696378 1.0567756561159376 0.9420453895450327 0.8376662333924094 0.752176219097503 0.6918441527787775 0.6596686947520407 0.6551093841009163 0.6745733690834034 0.7124523207181511 0.7623549589128878 0.8181623057768121 0.8746459243632784 0.9275854211549766 
1.2481933007561128 1.1493635337832393 1.0450357761184765 0.9424889968561613 0.8495850742255033 0.7734538732010854 0.7192451027423007 0.6893041901115546 0.6830023325801801 0.6972397102775606 0.7274225620170696 0.7685701795541843 0.8161902236641985 0.8666753217830967 0.9171755203143755 
1.217303301876781 1.1321030555129072 1.0425123740922622 0.9543107585967985 0.873788142900979 0.8066923889008231 0.7572112858754985 0.7273049176887558 0.716598330658726 0.7228537202097127 0.7428370154257922 0.7732547099423426 0.8114187125673304 0.8554097356613348 0.9037124652424131 
1.1861493208033103 1.1182493198865624 1.0463625459099601 0.9745772214560613 0.9075299141103939 0.8496199844355831 0.8042106997182197 0.7730921452983317 0.7563991226663118 0.7530097855911586 0.7612621997167899 0.7796925968924345 0.8074784096755747 0.8443760783370496 0.8901426271086244 
1.1523866635250477 1.104376160569386 1.0523532165678087 0.9985947036158349 0.9460511317546711 0.8978229617238835 0.856562087712928 0.8240356870999584 0.8010340134064406 0.787661459168126 0.7838781366839583 0.7900303055485947 0.807081555350095 0.8363530968953676 0.8787718048224167 
1.114385332183833 1.0873270410333316 1.0560566709005172 1.0210249323124687 0.9835402341041742 0.9454907613995045 0.9089197001142398 0.8756575259025834 0.8471876602668403 0.82480570845677 0.809976577189688 0.8046672753340463 0.8113972139866981 0.8328288128464205 0.8708978137905431 
1.072125748985159 1.065294516048251 1.0540503775369545 1.0371300750535655 1.014343740984126 0.9865149266567044 0.9551949215125053 0.9223281394943205 0.8900466962980528 0.8606824593455036 0.8369439062520582 0.8220782977157626 0.8197898735199547 0.8337452140679535 0.8666549948742142 
1.0276221989708636 1.0385073568575307 1.0448339262064357 1.0438655170384037 1.034166301652002 1.015720238883892 0.989742527630482 0.9583400402088731 0.9242080216957261 0.8904860809958173 0.8607687313480388 0.8391354735140194 0.8299975104129006 0.8375931399670676 0.8650989522329797 
0.9847530903435017 1.0093554767974942 1.0292508330248265 1.040576743175336 1.0409994825849584 1.0299654812140444 1.0085628471481158 0.9791371156314226 0.9448646628694514 0.909447341176326 0.8769752499708174 0.8518678346731949 0.8387135600773844 0.8418334789134045 0.8645020708735672 
0.9485370133743511 0.981929520540548 1.0103271527602646 1.0291503448416948 1.0355757140340969 1.0288692789560696 1.0102498573219354 0.9824211946243119 0.9489983562191868 0.9140369199476276 0.8817660597123773 0.8564809350939449 0.8424346900524626 0.8435420092416841 0.862783851116438 
0.9240411126459783 0.9611007870397977 0.9925806088418025 1.0135955393135914 1.0212472336788703 1.0149910499944195 0.996457460942113 0.9688664390357579 0.9362865595304143 0.9029949315000666 0.8730943793617038 0.8503881418715838 0.8383701949436198 0.8401251939433779 0.8579768210762038 
0.9152047332477815 0.9513801389527324 0.9809782762411412 0.9991614916929038 1.0033157846184528 0.9934125455615332 0.9717546299451105 0.9422488021328137 0.9094840364419565 0.8779195348080844 0.8513937582697494 0.8329989454368066 0.8251961180758725 0.8299449157494215 0.8486330832352336 

1.3871885881239354 1.3139812527811923 1.204807578821587 1.0701777303794748 0.9234431788923099 0.7787096242007636 0.6489113287278037 0.5443700225724384 0.4719643779679912 0.4348501190818802 0.43256148560338537 0.46131939507573694 0.5144513952937777 0.5829389824682683 0.6561841094028182 
1.4274436159507515 1.345092896379466 1.227697237755669 1.0868361554724906 0.9368501564623729 0.792551064570287 0.6671031048561993 0.5704556138329238 0.508500719579613 0.4829161163418709 0.4915074459842552 0.5288256239382438 0.5868937979272084 0.6559887126626722 0.7255170560740135 
1.4440062447853745 1.3534280598091692 1.2304420139950685 1.087229482158899 0.9385106203551877 0.7991515553602832 0.681954542357806 0.5960518644356219 0.5461103775725493 0.5323192827357052 0.5509586056003734 0.5952788550286054 0.656465546425132 0.7245742195023657 0.7894373730206331 
1.4385440599957984 1.340884144232988 1.214832152245805 1.0727369252440697 0.9291456437965978 0.7984025702530297 0.6924446150592888 0.6192365227014607 0.5820724130172736 0.5797215342710702 0.6071987455825985 0.6568517859983003 0.719488908179569 0.7853863402075107 0.8451507126018627 