# vtk DataFile Version 3.0
vtk output
ASCII
DATASET STRUCTURED_POINTS
DIMENSIONS 15 20 65
SPACING 1 1 1
ORIGIN 0 0 0
POINT_DATA 19500
SCALARS Image float 1
LOOKUP_TABLE default
0.9183865299363642 0.922690010275795 0.8210191158632583 0.6957241289838981 0.6684488639863798 0.7532120060927328 0.8467290849859657 0.8919380510700403 0.9690811760506591 1.1683174314687057 1.4362848150349512 1.6254549554736137 1.6639169663511044 1.606848067525428 1.5385860542933616 
0.9845422750542732 1.0056940588544938 0.9320347684304947 0.8440591168366838 0.8390221127537811 0.9080549541715239 0.9556124205169985 0.9579522105845614 1.0182184191555324 1.2155400998634782 1.4673910290017296 1.6133568100983562 1.6000144800840677 1.514904668556915 1.456617258796419 
1.055599671950178 1.0763213354116072 1.026139077315367 0.9696220268033141 0.968920306909604 0.9986628323056324 0.9871667363675879 0.9473633476496278 0.9901074135010416 1.1712323486726999 1.3885052438613532 1.4886422211591717 1.4416878628113705 1.3520380907563732 1.3158171085460186 
1.1258677777816344 1.1193572533891094 1.0769221233358366 1.0400123729788555 1.0331617596855 1.0215817542406063 0.963727587806322 0.9005750105336648 0.9325953896581168 1.0874196232112272 1.260440853158194 1.3248364325427375 1.2709605563085908 1.1977024465305373 1.1831044175366754 
1.1706201482605774 1.1229673124710509 1.0772606268086573 1.0543065282237354 1.0473550020109856 1.0181709217309356 0.950804045975397 0.8957923690704979 0.9250488096615993 1.0397498155052922 1.1542183980644272 1.1854992834622329 1.138931342098134 1.088715407305152 1.086175980211848 
1.167386260650529 1.0834350548029805 1.0302072229987376 1.0193944550053136 1.0267333437524906 1.0157448055370706 0.9852150103687142 0.9738752636410068 1.0106390587012555 1.0753534499940924 1.1189785450184517 1.1133997028224862 1.0740336369765155 1.0404074773495506 1.0380086196512974 
1.1168197227654864 1.0109384488269004 0.9474733708534908 0.9444913501229986 0.9764762268089024 1.0130491943987543 1.0566373890287937 1.1180235260920386 1.1761886870564746 1.1948891336330594 1.1690057763207127 1.1251591877348581 1.0839252357743023 1.0502369016074435 1.0329694914673642 
1.0466711763852818 0.933722221511794 0.8583882072144875 0.8565574151772168 0.9130902105771251 1.0058559925763109 1.1341005204665804 1.2757065051581746 1.363299610327035 1.3494081695861126 1.268357109692133 1.189944719086385 1.1343842067253398 1.0793461131321322 1.0301635539104803 
0.9973078394578097 0.8897928653945424 0.8061099712345848 0.8012971967389124 0.8727702499490734 1.0056366786870414 1.1949784095306375 1.3932018649246551 1.5008190327924023 1.4649653927578605 1.3472380646436315 1.2421540978621142 1.164332731036637 1.0746592733047902 0.9858216396663599 
0.9974617065696584 0.9039952998226506 0.8218164199705729 0.8162300064658592 0.8907790584344917 1.0343727989925275 1.241015714583702 1.452517131729133 1.5572762854734001 1.503580285853728 1.3657914365043127 1.2443542441623916 1.1457713023542266 1.0252443045267847 0.9077645203415292 
1.047290736277732 0.9701589295129478 0.9013418779878389 0.9028063919784255 0.9750008646861575 1.1069980071008008 1.2950499092536067 1.484053511524979 1.5676394600355 1.4996108801969779 1.353630773915327 1.222266279665228 1.106949401391649 0.969374254171187 0.8468392969185533 
1.1222256860116477 1.0569149369448303 1.0075443816799052 1.0217930794497445 1.0923203878828787 1.2074558764824095 1.36648476246451 1.523296425181887 1.58508293412176 1.5106941344293574 1.3617921560092312 1.2162282043808263 1.079836081421009 0.9352040500793479 0.830732622839933 
1.1904723330084452 1.1279112804649987 1.0905072721816278 1.1088863412613368 1.1726447996959959 1.2733762960025892 1.4118248030532143 1.5486036295340375 1.6038088574838114 1.536617806884248 1.3876003192058872 1.2181089801745884 1.0509070239833564 0.9041972591314982 0.8370555210813598 
1.2249954198724284 1.1552109352699267 1.1081379676516352 1.1039977341131417 1.1426481961484893 1.2266727729734759 1.3555869979518846 1.490519645074604 1.560123687614228 1.518727524713278 1.3792377057384944 1.1859834368601878 0.9879800529329816 0.8488824424355641 0.83746188724754 
1.2075124108868631 1.125514786119031 1.046315358391834 0.9919657752943337 0.9872653485049522 1.0514124593802554 1.1782488572377514 1.3234745266668317 1.4222410698476098 1.4231523350223305 1.3091770300414578 1.1065955221019739 0.8924757508896591 0.7764347565657563 0.833164921777447 
1.1394867921026532 1.0513215250548298 0.936058925906605 0.8287455334264396 0.785752933261118 0.8396696459753414 0.970722688734277 1.1253591510597973 1.2484852393634849 1.2894515182623736 1.2061265706363677 1.007297381359457 0.7931559152083967 0.7101567597355567 0.8316239451068121 
1.0577055175915935 0.9773658076775067 0.8444394733409099 0.7122464168698748 0.6630126820265492 0.7296434958961273 0.8684410044466634 1.0153385240983397 1.132365179464003 1.18216839391022 1.1100852651686897 0.9123790223039056 0.7045028055123197 0.6540534074671696 0.823116838061724 
1.0243428111891735 0.9578831460521773 0.8282249249538605 0.7061380437173165 0.6857767837662174 0.7845693024967942 0.9275714468820181 1.0414863640320338 1.111946274464697 1.1269245760692457 1.0348908973779523 0.8281529313987996 0.6293235128399515 0.6089228697157232 0.8077107903793629 
1.0784549463234634 1.0112353773279144 0.8874137065651395 0.7902850292545527 0.8118861422723445 0.945478501085043 1.0863804347652062 1.155142985953068 1.160450842779227 1.118512369948481 0.9917916529504807 0.7765011786130096 0.594821813936669 0.603824375908641 0.8168697934125577 
1.1890239331421149 1.0964377827301266 0.9679135803477922 0.8904942710057328 0.9447788935631711 1.1030977863371776 1.2430696890725623 1.2828753859261282 1.2441238578921308 1.1612171052445766 1.0119123945451136 0.8001290971588378 0.6412276356939168 0.6686523948491399 0.8709588942497788 

1.1344617600267577 1.0791500461372325 0.8998906231308441 0.7117596318856085 0.6492340021912395 0.7200282652627168 0.8154361652059239 0.874914562436194 0.9609548864852978 1.1391160798097255 1.358438642083642 1.50970170077626 1.5557065183437089 1.5427315589419959 1.5118499890252528 
1.123302113813805 1.09596610307508 0.9683497518101476 0.8411339402915046 0.8118078056750921 0.8668231174815118 0.9184360354607769 0.9476332297451474 1.0353016008380802 1.2276222762723077 1.4409403434396304 1.5516158620608589 1.5376889306781794 1.477958817072268 1.4360267955434975 
1.1176357909880799 1.1029388012215915 1.0239496851963503 0.9502847923899137 0.9321414064696658 0.9432504604677279 0.9339138394819688 0.9301159159655712 1.0174935903600235 1.2127224447882512 1.4081638090722777 1.4816891424787808 1.4280680763555293 1.3432403949478362 1.298855274487329 
1.132373043658796 1.0998693116626013 1.0470186035093247 1.0065302444017359 0.9820874725495509 0.943668625084573 0.884551921553114 0.8653289816526134 0.9591657336970268 1.1501279341411101 1.323082369380699 1.373890278264413 1.3099606520820355 1.2238568855011271 1.1807403607748836 
1.1454941907993714 1.0790358882576427 1.034907099424656 1.0143834051525136 0.9851165140665387 0.9202969092288036 0.8488131148974306 0.8448437252821593 0.9514386000410412 1.1230715557397226 1.2577007059228302 1.2858701808867583 1.2248685101497783 1.1487729512974636 1.108003752815791 
1.1406863645164633 1.0486851584614252 1.007703642593257 1.0017152083325462 0.9795018693497879 0.9227739253582744 0.8823112004692969 0.9228238522029292 1.0439491348388656 1.176924994137637 1.2503317134284713 1.2417845048014589 1.17866016052836 1.111483487230627 1.076035059427867 
1.1290188177064509 1.0302166436632643 0.9891766368848962 0.989989866989508 0.9811317593895899 0.9567708902377082 0.9764141187568959 1.078885194921241 1.2153501372423159 1.3002588019342902 1.3002515689549747 1.2422112682448738 1.163835883090681 1.0953992062527984 1.064514243742199 
1.1272942131083454 1.035444944980343 0.989192722578299 0.9860377971540941 0.9871162711115448 1.0001099556168769 1.084479675417375 1.2481973915778473 1.3991125286680288 1.4405252669117317 1.3728714311410275 1.26281035252916 1.1560310936803189 1.0699117686011081 1.0325279541991887 
1.137953427420127 1.0605491120403858 1.0090006630607262 0.9975568242324364 1.0026701983741344 1.042352851053967 1.1721045008964326 1.3753186730308555 1.5312143770037892 1.538229803793276 1.4191260003864155 1.2636450929488767 1.1211132891655236 1.003702894599159 0.9461655857549416 
1.1588812535779416 1.1001498283867823 1.0517682981883816 1.038199776075934 1.0451350040996452 1.0948851685967291 1.238376525873273 1.447010552517521 1.5909447515476491 1.5710015692210715 1.419352839488204 1.2315011972587795 1.0566449628903904 0.9082675095740691 0.8291161173619914 
1.195956502421464 1.1527476182392562 1.11510201487997 1.1072645049717502 1.1164306662494805 1.1640984215416408 1.2969024194145897 1.4856174265717461 1.608053073437781 1.5727334288940777 1.409502762505794 1.206001724879189 1.0106654519960925 0.8446689052258464 0.756686121977084 
1.2520629598709823 1.2097394932595738 1.1776593220540277 1.1726780892324262 1.181542426996489 1.2242201600572076 1.3423546747989341 1.510542269521278 1.6220785253929402 1.593358983619811 1.441285927024465 1.2368200858572305 1.0311200253232746 0.8612133987476743 0.780184927868545 
1.3106146279811088 1.2507930746867657 1.206505074617975 1.187002105390259 1.1853114010175385 1.2243524820414156 1.338877446907279 1.5047262846743437 1.630013325214149 1.6347431578186686 1.5137465492051796 1.3165527301778448 1.103267170503612 0.9364375569988794 0.874631460007326 
1.3401545562005872 1.2559202644100802 1.181552444459694 1.1246215204086456 1.096696218819198 1.1303883916423976 1.2510029595641372 1.4304119184058597 1.588294415406059 1.6443701585802193 1.5658571171525684 1.3791799810204277 1.1591420286875986 1.0014316096079692 0.9716558850305537 
1.3142839018880392 1.217478076904931 1.1091087039471808 1.0035305887732187 0.9413256567816779 0.9678687711661251 1.0950903194861032 1.2871147500603037 1.4751291069199892 1.579879026684354 1.5416472472205285 1.365126836959786 1.1425250162114395 1.0041815669972636 1.0210225304954044 
1.2284079717702874 1.1419595562541762 1.0144939764490761 0.8741912263013031 0.7922621391372707 0.8209932613161448 0.9521588035586078 1.1406471854647247 1.3334974552931522 1.4600225884286044 1.4416377889788206 1.2667879051377617 1.0448732453081129 0.9351758233189191 1.007322923313305 
1.1101300039158388 1.0516383998279064 0.9293293835991728 0.7885508494183646 0.7220619345874015 0.7748702082678792 0.910220078011894 1.0738274845877798 1.2341585536062547 1.3392344292783054 1.3051041670259398 1.1138494649666706 0.8906486167035594 0.8128082456184447 0.9386389065978148 
1.0184148607750871 0.9858262057415793 0.8830131957815837 0.772125089129336 0.7525565285746575 0.8473130806141163 0.9867932454751099 1.1093124435720219 1.2068912028662306 1.252483668069573 1.1702167611962064 0.9473377979032164 0.7226591280326418 0.6783036805576783 0.851218726169509 
1.012034736555028 0.9816688182218417 0.8906470922889643 0.814233436505981 0.8449057157992472 0.9779110276198851 1.1167395419679405 1.1965708891735252 1.228230536961046 1.2061177241089582 1.0693225401991278 0.818476275579759 0.6019868909027465 0.5941156634400466 0.8047064496957117 
1.0928071941534747 1.0353412883205957 0.9373366744347031 0.8788426433904344 0.9365383264272316 1.0845422274679786 1.2166130064896894 1.271296029162287 1.2665638974869644 1.204322591316736 1.0362849670671324 0.7782828391267904 0.5819223891491566 0.6044442314405918 0.8312568941180524 

1.2609236688660561 1.1499419267446271 0.9052573069662513 0.6650654222026071 0.5761849222229177 0.6522295981722757 0.7861726688080857 0.8979646472330327 1.0047230720717635 1.139266487721415 1.274044051796682 1.3637493778181107 1.4106389915373156 1.4392519431941346 1.4373680221790093 
1.162209260074488 1.0818035028050226 0.9063088285963137 0.7461420313201964 0.7015701877132549 0.7686164578751771 0.8704846395892245 0.9700895946167171 1.0965797777326538 1.259589421060071 1.3999094202646853 1.4559122670926947 1.4385003506652918 1.4027461661482734 1.3674255499054793 
1.0555110721442778 0.9981674762147239 0.8975916363988564 0.8176356817921218 0.8001489196219865 0.8306475094311331 0.8787815373824588 0.9560192398326505 1.0949961208319703 1.2754121633788105 1.4128559969954264 1.440175652803223 1.3765248908065553 1.294908671836042 1.2336245979652765 
0.9940852842890466 0.9364805130347921 0.8902639762298115 0.8678264839163521 0.8544653459611711 0.8338376956401695 0.826667915464294 0.8855041743735121 1.0346255612557285 1.2231577188993261 1.3548923041692722 1.3695860519321272 1.2911602366335266 1.1938885323471384 1.121826406311287 
0.9758206989887694 0.9054465290901647 0.8922484094754224 0.9050036986337137 0.8854753255602859 0.8230639072381472 0.7826629075398174 0.8400901638932893 0.9979966401558219 1.178497673422964 1.2902488520704192 1.2940154518031326 1.2185763492908273 1.1286470134352153 1.0646299566052906 
0.990496754567228 0.916613977898984 0.9251342750094761 0.9574670198085494 0.9314480108757492 0.8483490494185326 0.8042753158184466 0.8780668737245727 1.0402776476667674 1.1914256040770221 1.2590001347041766 1.2366398793580409 1.1624693699029918 1.0900398475583593 1.0532837948639682 
1.044084996072764 0.9825819313793344 1.0029378966099538 1.0382391834972642 1.002818497763581 0.9141782217976337 0.8866419023062398 0.9870268907602756 1.1496989198419096 1.258536493989391 1.2654421515159002 1.2008166253395542 1.116636686661373 1.0596876061589162 1.0592702069757443 
1.1251214253578512 1.0819430742335852 1.1014123595787966 1.1235365781361728 1.0736493568477323 0.9859818850450763 0.9824684730974196 1.1113424325675625 1.274442415007588 1.3431801567289203 1.290141666223672 1.1765600049860467 1.0690916419811243 1.0134343902905965 1.037609097020428 
1.18864514871051 1.161712673945081 1.1748486713768 1.1811579656139775 1.1211639935521847 1.0407446231636417 1.060761636438886 1.211784883695441 1.3738255935808819 1.4111533939005731 1.3086006857192272 1.1464111451409613 1.0033369049613774 0.9283272033944351 0.9504980744122514 
1.2030283489314966 1.1900339313637573 1.2034885643779487 1.20683003997554 1.1517843655224298 1.087411956369581 1.126311354650277 1.2863853471382096 1.4404409106436897 1.4530939024684995 1.313413281545791 1.1082568904025625 0.9246718726639642 0.8173862526842965 0.8168724484350055 
1.1925033574163422 1.1859822632581105 1.2035791371742368 1.213276356784196 1.173669057806556 1.1306942215818834 1.1834140272950853 1.341847620468453 1.4847568850471589 1.484163459658041 1.3267016136872987 1.0949308073470665 0.8804310681535833 0.7452275617238691 0.7202714943955728 
1.2058610121862627 1.1849669870792896 1.1910782624689975 1.1944170553222997 1.1627713718805361 1.1389479783358407 1.2052483109124785 1.3651306063256499 1.5103539990745025 1.5231654830591672 1.380435055647941 1.1503745647300232 0.9257333391260953 0.7779423845031419 0.7390223885133564 
1.2524381944905791 1.193399337267982 1.1602668307143897 1.1284307702412966 1.0842566031303587 1.0727698897348679 1.1576207783469383 1.3335749901004577 1.5064477992279146 1.567236241858469 1.4750814671457413 1.275037564582293 1.0588506149251027 0.9112127821637869 0.8686604568049114 
1.290918319086111 1.191670202124231 1.1057633005646055 1.0190388702644866 0.9470207674732588 0.942353761036701 1.0483155218764433 1.2484352109914714 1.4624517885116881 1.5888635698591103 1.564178491665511 1.4054384748067854 1.2035633147476756 1.061227526838673 1.023514627220253 
1.2752133018555176 1.164693867034316 1.0425555914686269 0.9093981744891247 0.8145122995599241 0.8176540952509603 0.9388476842675745 1.1501495154298198 1.388173257741072 1.5621774874519423 1.5881388377005754 1.4571572223213762 1.2624416992742058 1.1276727963531703 1.1066561935443107 
1.1939860651040402 1.1118936522057956 0.9890817977197119 0.8432226632449835 0.7523182418771154 0.7741923874907508 0.9009101424894835 1.0949650215649829 1.3151675950682733 1.4886293659690113 1.5201507886507828 1.3845970847580076 1.183227863050281 1.0600912447803552 1.0715168605368872 
1.0755943663885728 1.0421496611877927 0.9475372082258577 0.8273758493210392 0.7753209181013271 0.8329288271358499 0.9598289204522336 1.1114747267241232 1.2719582105654748 1.391915174216681 1.3775615706813338 1.2024026700792214 0.9828512984058517 0.8789639363561698 0.9385804534048282 
0.9784746079894886 0.981409086252578 0.9187614278238776 0.8435699748033667 0.8496994104859084 0.9510627112876984 1.0760779672909806 1.1764108197452467 1.2583092745478972 1.294488423598115 1.202464612657635 0.9693130368541827 0.7323081051862567 0.660441387609146 0.7816043056506669 
0.9676869467418532 0.9730673933565072 0.9218426994268855 0.8809002214458892 0.9320071562242986 1.0609285136663877 1.1770612165954797 1.233940497642218 1.250150150675355 1.2096182885499969 1.0437079006435446 0.7623591144051072 0.5245693616358156 0.49969710399985245 0.6887785019770776 
1.0623570193181828 1.037696833769063 0.9722686092835109 0.937460852788372 0.9951853676742914 1.1145829628360575 1.2086551686272247 1.2411992950439874 1.2293861385433504 1.1508275051435302 0.9455204684581485 0.6469662030351642 0.4301394155098607 0.45647344777747045 0.7017673270769154 

1.2765621836826153 1.147944151129166 0.8880067820869321 0.6365847275085275 0.5433545373926394 0.6342036424427386 0.8096187873047465 0.9632555659938828 1.0599900814502248 1.1110625145794595 1.1347986559544603 1.1593518813157864 1.215682766045286 1.2934903507815791 1.3279043686547833 
1.1306641670976068 1.0292938782690695 0.8439553623091928 0.676788450189002 0.6270672638951116 0.7083585516037652 0.856212951316118 1.0044956620191 1.1260624399272188 1.2117408430189718 1.2532021123387347 1.2595176218946444 1.2610192585501998 1.2731736681122123 1.266819614582148 
0.9494595363788079 0.8736184635234939 0.778618389917794 0.7095327755839014 0.7002687642775995 0.7542790512886601 0.8554763314564929 0.9861925400192971 1.1246604470112607 1.2367641819084108 1.2897300125574145 1.279250857544272 1.2352560162200028 1.191732402455204 1.1475125057353788 
0.8189025526698177 0.7555390199316494 0.7382604099055462 0.7508428140471811 0.7623292485017746 0.7718047390778546 0.8156868131150714 0.9220273799219244 1.0687381568398235 1.1968194459317814 1.2572386316994466 1.240968674992585 1.1771286738151137 1.1077303162085568 1.0475370881437536 
0.7647599338226423 0.7079566500325447 0.7474474167273861 0.8146413283561906 0.8271689256487591 0.787267909503064 0.7793143187526538 0.8651807244468707 1.014017066192669 1.1438371987316944 1.1998065817348027 1.1793703877702453 1.114663276606133 1.0497054574991869 1.004870193582767 
0.7883174199915841 0.7484503662888957 0.8283954239989526 0.9239285235036886 0.9221151164043966 0.8362205287065841 0.789328499455169 0.8621513139770758 1.0071666571361826 1.1215857763595738 1.1532785171878122 1.1167149949000825 1.0548852253984737 1.0142066318765313 1.0144005546279258 
0.8875323036687859 0.8776830776891369 0.9816954520768087 1.0787400994097116 1.0472008263940185 0.9178217791274659 0.8421837032427113 0.9073755946293619 1.0450239316979237 1.1333604732123312 1.126101127788559 1.060000938403757 0.9959825302807798 0.9859329516531793 1.0453667459722413 
1.0208522592374618 1.0406309140554957 1.1495202043123698 1.226118350577152 1.1565532939145169 0.990745659320585 0.8978108445704844 0.9626805890034835 1.0966734970648795 1.1611276687440866 1.1134780508440019 1.011087340103737 0.9353781036962456 0.9455722310478488 1.0506979083793355 
1.1018199415487169 1.1402448425761407 1.2429456669712253 1.2968941718790106 1.2029060877265092 1.0246312771837784 0.9354806534033964 1.0120685694576617 1.1501227012962731 1.1985085219240592 1.1149372611559958 0.9717014875918245 0.8691461756982476 0.873772379792407 0.9872271815519347 
1.0777169983722716 1.124349568236873 1.2231821282330857 1.2715198019409168 1.1845198885319144 1.0296000030279298 0.969888616283384 1.0687082668845254 1.2139135035269504 1.2499499303822497 1.1336080343021107 0.9458251032137093 0.8019342621126504 0.7746436084813184 0.8591335994006759 
0.9958769374988989 1.0380784633023534 1.1316400839899547 1.1840738721252446 1.1247877594881053 1.01741602568484 1.0027278760341876 1.1270581263738984 1.278953383609398 1.3080083554168407 1.1700915310337654 0.9475102751399705 0.7642513506238917 0.697520142250752 0.738763996440144 
0.9531641449187246 0.9668416269260075 1.0314364587336522 1.0674482584136276 1.0246238749201408 0.9625459336488248 0.9929710692141839 1.1430476202812314 1.308860258646024 1.3521045304988657 1.2250482276461285 1.0007766546361914 0.8026582604282262 0.7105308166413877 0.7168778040275985 
0.9865301572278422 0.9469545412792857 0.9488742024588595 0.9313813769568874 0.8750742597288972 0.8403926928089437 0.908117830948255 1.0856522864385956 1.2811830309914845 1.3714203233660056 1.298929747968736 1.1148145255125774 0.931982969583586 0.8325135831373516 0.8166038266526412 
1.0447242520245545 0.9554148457653605 0.8866547574643948 0.8003445321325627 0.7152283961816923 0.6957203996109491 0.7913846282293707 0.9916544870077837 1.2213449287543814 1.3740835528949276 1.3777849849862673 1.2526438890962577 1.095771175451982 0.9939440147761187 0.9612575999837418 
1.0617233755810496 0.9646850780231524 0.8592619637717201 0.7303335237860165 0.6326764619377829 0.6305854077417465 0.7417062740308114 0.9420564067247215 1.1793334841979883 1.3681862281942117 1.4233440935365744 1.335118663827763 1.1878058869205363 1.0773154413072161 1.0328140883885997 
1.0241139643886643 0.970733776129735 0.879734621697167 0.7568866617440497 0.6815860227059213 0.7070703995096485 0.8180459018776405 0.9831360354273816 1.1785333595392544 1.344626516489193 1.3911330763463283 1.290501277174456 1.1251021176558127 1.0038130682451585 0.9640012563674503 
0.9672344709037874 0.9770418973904494 0.9286546935060666 0.8474559022138717 0.8218378138779274 0.881898606723391 0.9806419104108386 1.0845804167729645 1.1981069937550755 1.287039413669766 1.266023939413979 1.1080627684571176 0.9082736748407597 0.7897113681926059 0.784734580817926 
0.9426999590543984 0.9910205282911746 0.9741179129858053 0.9363603472056218 0.9609983877332597 1.0493457135193998 1.1304420403611186 1.1728714916686722 1.2000519394732938 1.1936839985642849 1.0792539988629821 0.8480160365922261 0.6205888217441677 0.5322188626718959 0.5963973027959638 
0.9977953319025349 1.0387878525683272 1.0186925612131845 0.9970291393089167 1.0421846111986628 1.132417450621573 1.1901914653658965 1.1912412488737132 1.1623375887721228 1.0835574571821942 0.8904495898078926 0.6032869425329762 0.3737382527327705 0.3442920788653073 0.5012099887331268 
1.1447399794246045 1.143541961854171 1.0912876594637269 1.051560304489722 1.0717612575733861 1.122711761251246 1.145325371508802 1.1297583739663277 1.0897957036905328 0.9845770878983284 0.7538192309332528 0.44776768597062366 0.24467593511360286 0.2871807269662029 0.5352594310133704 

1.2232101032490985 1.1161235327480532 0.890296756134635 0.6654898756685702 0.5827986262223235 0.6818567477986631 0.8743573764849881 1.0301674125919207 1.073260608170189 1.0148364275690498 0.9316530704557602 0.913514275264147 0.9972637512114282 1.1304262609736477 1.2088769562806883 
1.0917923195118235 1.007697306261851 0.8503906949813591 0.6982734622225371 0.6442082599822225 0.7209611768512924 0.8759355458681295 1.01504287625038 1.0705855964329989 1.0416502856863588 0.9853765389131364 0.9697150980940911 1.0221392455389804 1.1099961879467204 1.163557755831059 
0.8917083508501706 0.827570888007078 0.7598419848145025 0.7076414170762831 0.6975691029896082 0.7514671011577714 0.8616670827621944 0.980259067507799 1.0495319609713993 1.0516229299717854 1.0206635252862775 1.00432727612103 1.0233114617071821 1.0634568972657346 1.0852197488802855 
0.7205575512646463 0.6689365652213863 0.6863252373762431 0.7291855360122972 0.7558666236224412 0.778748986559512 0.8378968377868935 0.932376803202482 1.012307210489321 1.0405959434859184 1.0301220265148818 1.0142288431430342 1.0110141623129087 1.0213235922579547 1.0267968722250918 
0.6292140109049058 0.5897232948556201 0.6749977916573335 0.7876317297802913 0.83016797632754 0.8123901252762313 0.8199946907361001 0.8922109664667696 0.9809182183504765 1.0275312400401289 1.0272996400176444 1.0082927048856543 0.9939651729491003 0.9990902859837683 1.017139322057274 
0.635419445511149 0.6218307383350663 0.7584025420395437 0.9090829744282903 0.9415290158699298 0.8729746759886635 0.8302085030084725 0.8826621117988005 0.9769188370758459 1.0305213395896582 1.0243059075266117 0.9906733676460513 0.9687483443934164 0.9887719684697766 1.0479785138549342 
0.7341096081897194 0.762553513801349 0.9336985326193205 1.0895391596816486 1.085413214996722 0.9556313633255734 0.8621647895683849 0.8950493313301076 0.9906056464616355 1.0412080038713867 1.014995541758036 0.9555182065488608 0.9256855797071553 0.9717009366913884 1.086826433851285 
0.8652367722086909 0.9368359581674067 1.1227656647942954 1.2578504824483736 1.203219489567784 1.0147083218091706 0.880072660997246 0.9003825584640265 0.9994895271412974 1.0456476183942007 0.9951496526250162 0.9052221543878293 0.8652070372201055 0.9341934429321489 1.0942481189472009 
0.9214121360621985 1.021800542803914 1.2075562624731364 1.3169514530764903 1.2270276884913591 1.0112477196031362 0.8676971250952001 0.8969143305463425 1.0101853146159507 1.0564339497642283 0.9824552330619015 0.8588812439587501 0.7992449294206234 0.8702555374781431 1.0387047887032583 
0.843765000984235 0.955273381330769 1.136120019236585 1.2344838304843602 1.1470854558164445 0.9551473198000526 0.8474182347606877 0.9110253249924791 1.0469472224048935 1.0941752220173964 0.995322635451215 0.8328409152124335 0.7390932559231539 0.7835927440484053 0.9192258398666944 
0.6981055307797935 0.802502495508687 0.9702699113534521 1.0646876806118328 1.0055734465746802 0.8732734622882488 0.8297672610071024 0.938487863147376 1.0954511647944438 1.1421008531867431 1.0227056016341338 0.8267908038348247 0.6966658467042398 0.7008490695072018 0.7847357223671187 
0.6122842589845758 0.6844742636118017 0.8115617692464556 0.8785660654434961 0.8357617910101369 0.7604864623060676 0.7781668215490593 0.924235698075005 1.0976166754279206 1.153553197178148 1.0394990549035545 0.8410756289789176 0.6971962438272674 0.6720046229218974 0.712774162184842 
0.6400763561229728 0.6569776106864034 0.709803636577085 0.7120170560631108 0.6528403614077702 0.6088128021986389 0.6664650731175212 0.8351081956290127 1.0254445585991947 1.1139525581680745 1.0469798487045994 0.8906038330284687 0.7655659766765321 0.7297135251523778 0.7423606529016702 
0.7227715002905521 0.6902661023552925 0.6662592267144481 0.5951455796905024 0.507210668016973 0.47779428234416377 0.5556195981813943 0.7301606950422566 0.9329131070553752 1.0659849712914917 1.0690561118076116 0.9762179618286303 0.8810390000545314 0.8368228736753126 0.8229257404638408 
0.7823734469179763 0.7456510454409397 0.6879502645745733 0.5813779022831725 0.4888477838150578 0.47748228641764223 0.559998317955416 0.7148109935830443 0.9025021174908856 1.0541646056552338 1.1020955044283591 1.0474532789279354 0.9592956523807741 0.8919788718533503 0.8463487616147986 
0.8092827919056367 0.8216088667031691 0.786342690205792 0.6982395295613837 0.6373313217382274 0.6518591893337904 0.7217569752981092 0.8234374865078213 0.9508967277059813 1.0650366620658935 1.0960032083263884 1.0242707084169456 0.9083299409365992 0.8101832823096553 0.7439997484963696 
0.8474259346803377 0.9238438539375159 0.9322883885548183 0.8879363602168681 0.8727130908082976 0.9086383493516025 0.9499620469631218 0.9777995568775806 1.0150113984891496 1.0458516548581067 1.0048105025025367 0.8714028735976127 0.7127502705944277 0.6028769541659554 0.5536462132602575 
0.9352979705055897 1.0396047209563313 1.0644804982040985 1.0455715986278031 1.0564857177160705 1.0945515540779347 1.1013852515190654 1.0660897759187289 1.0251968402881841 0.9701976708219834 0.8425215467417561 0.6396095566772355 0.45406681289258755 0.3728157930009398 0.3894297867510965 
1.0857711012051832 1.1613940319925624 1.1554956459956787 1.1206771585114443 1.1166823683658713 1.1275388121901961 1.1016091190903061 1.0377879176344704 0.9652049740796775 0.8610593836945738 0.6714720703200525 0.4236319363641702 0.24406846433090168 0.23007528417912604 0.34791686905742847 
1.2867674687320914 1.2977168997687878 1.23286155357504 1.1493946930950594 1.0890541774985152 1.039765240812108 0.9793843500580396 0.9196034284013092 0.8638404970520894 0.7568745806346064 0.5455438955141847 0.28906773305192324 0.14486684972039088 0.21503234182145348 0.43981363501468596 

1.1470830188436503 1.0748597476124298 0.9011715500851752 0.7162550146984964 0.6471881707916808 0.745775451438428 0.934286645683205 1.0647639570736065 1.0387488480742133 0.8856300464827307 0.7353549800155218 0.7097006520856166 0.826546008175302 0.9962411522498589 1.1010857142401118 
1.0674589544919013 1.015429884288539 0.8983005561858197 0.7676085501208373 0.7081400214280807 0.7682497199701389 0.9025608473262948 0.9948624081255909 0.9586849954962997 0.8213735596948761 0.6997984413559126 0.6927701993364692 0.8047416395891946 0.9618099653842693 1.0741839562671351 
0.8926192078890319 0.8503497332671077 0.8092051664992431 0.7671289671010074 0.7472341559677507 0.7853386884239371 0.8738454811937617 0.9390250973591509 0.9097996495331336 0.80457043557901 0.7187467398630325 0.727269927343412 0.8259475466830947 0.9587856613571482 1.06137392756577 
0.7130128534892384 0.6719445015465737 0.7060425503541394 0.7575995089782116 0.7844584074744801 0.8078686436474132 0.8591229977272903 0.9089711277904935 0.8997145828086658 0.8342489628487973 0.7824443069994614 0.7996441987815608 0.8807689558823358 0.9891991595093534 1.0803262651085566 
0.5970066700668704 0.559793666823675 0.6562583295954079 0.7810805019850868 0.8382818189964774 0.8410417392013203 0.8591996404789357 0.9037960775455705 0.9238866732641028 0.8994349372888303 0.8727476522044803 0.8872709617432131 0.9477554450227176 1.0394010000466967 1.1309284919692477 