# vtk DataFile Version 3.0
vtk output
ASCII
DATASET STRUCTURED_POINTS
DIMENSIONS 15 20 65
SPACING 1 1 1
ORIGIN 0 0 0
POINT_DATA 19500
SCALARS Image float 1
LOOKUP_TABLE default
1.0669598538595453 0.8837632700444323 0.7360559742550864 0.7647728524591226 1.0028902133905953 1.3204631864801184 1.5251014540268524 1.5153536628242241 1.3417469594991642 1.1409630483504078 1.0209554389728095 0.9910010700784111 0.9794552921084418 0.9158762130523231 0.8039633868305017 
0.9435846768971881 0.8294502844504483 0.7426280010705606 0.7987073594539166 1.0209164610599624 1.294417420783154 1.452476445887909 1.4094732182167202 1.218850786158049 1.0168903885430987 0.9093483638083375 0.8947510395912515 0.8864884973903996 0.8123457863943603 0.6937494947605318 
0.8248935575912161 0.8119812529850401 0.8078789217233979 0.8859589241648775 1.0616671452363442 1.2555544016338354 1.348986289582989 1.280951163708326 1.1003167726418837 0.9281955780930842 0.8569475250311921 0.8721373883487593 0.8770226747043585 0.8023745531101543 0.6854788277964476 
0.7747168062500859 0.8511305870644158 0.9217305368231568 1.0134351481088817 1.1340788286260044 1.244243914478729 1.277261475315017 1.1963428018461686 1.0421939519645846 0.9165620699134102 0.895339931697541 0.9501654268540964 0.9749409584934462 0.903423034688736 0.7857653350635453 
0.822941715587508 0.9446420100614821 1.0508605260650525 1.1318794068805886 1.192506232206455 1.2303512060656148 1.2220724782096855 1.1467986875572396 1.0332236979303542 0.9629668598104468 0.9946541189392348 1.0851026660861753 1.1195523324506709 1.0365262847003862 0.9001075370684456 
0.9618821124490716 1.0835143731547001 1.1715682066490352 1.1995714201318188 1.182926126656136 1.1556559526477652 1.1260790999485621 1.0769274600935232 1.0183699258343402 1.0095585776563119 1.090515734944189 1.2037834321166527 1.2300265754897346 1.1177293726358686 0.9471316523463125 
1.1587911560521127 1.258900242806059 1.287642508332885 1.2233581739294919 1.1101420486200608 1.020590887387843 0.9833954494885204 0.9721438430075761 0.9719997663476951 1.0186622590276038 1.1357748909641574 1.257517230706261 1.268367689840521 1.1315986400318312 0.9397192132503631 
1.358816848814267 1.442120147172458 1.4041114516722373 1.2424817228853349 1.0406282885875378 0.9056104340222674 0.8726481268806223 0.8955967289223259 0.9338807554738071 1.0064348053467347 1.130883036944421 1.2452520079350635 1.2476782401082631 1.1165245392635754 0.9446992181437126 
1.4921684131262658 1.573418283123016 1.4952437689797011 1.2775419895625943 1.03694263316235 0.8977953853915918 0.8845296957081066 0.9262992990494501 0.9656170870887874 1.0196740136776057 1.114733589127251 1.2042542293902108 1.205271401827499 1.1065917949405184 0.9893114032074894 
1.5082192365576814 1.5957249047880278 1.517689456038335 1.3086219597600661 1.0978915151981097 1.002240037573771 1.0214685592025508 1.0651331338672219 1.0756676251504897 1.0838409253946315 1.1317110077404444 1.1881587271987262 1.1843327897295315 1.112689712173326 1.0399307308758714 
1.4138908074119128 1.5049404384237082 1.4549665603668833 1.3009337731143815 1.1624663470492065 1.1302131039886545 1.1785522626318934 1.2135952031890085 1.1956375467438822 1.1743881021025346 1.198890209422165 1.2382542830844367 1.224118911765299 1.1467981264861866 1.067013449304308 
1.2684946306294553 1.353962637503327 1.3332171251960137 1.2366592933323295 1.162496113517879 1.1728003410125398 1.2293938548642842 1.2546226110908067 1.236621735702216 1.236145486750456 1.2899169091105684 1.3481905008028434 1.3308479937180726 1.2232476655301134 1.0898258602710178 
1.1343330612588103 1.2026801943626853 1.189545841685913 1.1191373199661125 1.0713556851026185 1.0891143604573355 1.1358993527948398 1.1596876575353166 1.1722867886527246 1.2308297348492716 1.3467100142455743 1.4475893762248255 1.443630017544426 1.3162161336105767 1.132687162897454 
1.0393117557619758 1.0762867072893418 1.041531812973465 0.964282471758069 0.9179330455371462 0.9344677760669424 0.9797811731500182 1.0175810476868663 1.0666095362452686 1.1695360526574297 1.3188820507430221 1.4407806560787573 1.4554435768521992 1.3440533189014976 1.162863651028899 
0.9880400005305456 0.9780336329374111 0.8998311039629383 0.8042236522353866 0.7684738242474691 0.8118925079479022 0.8880372534737044 0.9534823777961084 1.015020626835042 1.1003316157700789 1.2055562183903665 1.2890184326605516 1.3057907338452714 1.2394948681035516 1.1168017081285901 
0.9877847037645688 0.9232263684202644 0.7966258364151155 0.6912244746464804 0.6901305951649656 0.7916572193858878 0.9213138389102804 1.0121629538597299 1.0517029853729531 1.0610852095916319 1.0607479882882407 1.0614571451309645 1.0620737150165316 1.0449993876911292 0.9964654222840351 
1.0403994788735274 0.9347088329660813 0.7754184288792716 0.6739662706498528 0.7124025388537844 0.8637702645754384 1.0266064876727794 1.1170696736670913 1.114326047825772 1.0437633033954354 0.9523303599777841 0.8919770006546003 0.887206617194008 0.9081282324735929 0.9037294107930423 
1.1142738784521458 1.0035556759820954 0.8437999184647356 0.7554126997658384 0.8086748402117396 0.9575498950304406 1.0947789323711477 1.1468380958477364 1.1068626626088058 1.0106333984929496 0.9139823598066644 0.8735189075076479 0.9043328172681762 0.9525930205968872 0.9454739118626126 
1.1527383909458861 1.076391428089574 0.9489616089310041 0.8775476483117113 0.9133645983960974 1.0042556404446719 1.0632713850708488 1.0542312732731791 1.0012260592382456 0.9486964466080671 0.9374970649364354 0.9922448356496774 1.0909180787739634 1.1546558938858533 1.1102701175044611 
1.125771901892007 1.096709304555985 1.012436469869694 0.9567940761921676 0.9630102820556526 0.9832545587460478 0.9621516433242494 0.9064747229959513 0.870080739239643 0.8981068761783938 1.0020141234256512 1.1598100544594607 1.3097217218164927 1.3627816427752213 1.26651308764951 

1.0223898397986622 0.8428590659421054 0.7120881271573747 0.7362186984806456 0.9362030256368935 1.2075083639434723 1.3918692092303044 1.3959376215560182 1.251190035458479 1.0724892036650449 0.9581349705644415 0.9162231006386854 0.879810070293439 0.7939954901668024 0.6832023441461305 
0.8826549171410685 0.7644302540374556 0.6783583242876491 0.7157627724811337 0.8973810028380643 1.1358609172688068 1.291508948612058 1.275939208551858 1.1178758015060763 0.9359986914498334 0.83630781125686 0.8223297617559906 0.8083865834550555 0.7264838538856535 0.6091494867553461 
0.7382961341071478 0.7210207103709276 0.7104512849982465 0.7631460326792503 0.9005694843276907 1.0737032517022762 1.185187940032255 1.1601755143289743 1.0147524028450314 0.8543632614312467 0.7830705709934084 0.8035933995621753 0.8219752429737285 0.7614890437020655 0.6545247272456167 
0.6595505604524621 0.7366798219951224 0.8024236049400895 0.8694918715417452 0.9566569722038616 1.0578479512838619 1.1249110417962516 1.0989335585837368 0.9792911538458045 0.8509593011196196 0.8115483647233074 0.86489904656309 0.9145341523333099 0.8773720808207727 0.7809588703546215 
0.6882361670565623 0.8162973285371107 0.9239520533977983 0.9856418006260295 1.017353404846602 1.0517128715112423 1.0843604891094407 1.0687113464387044 0.9853425357948784 0.8955372035006236 0.8860983290733211 0.9603047829135307 1.0222888006943087 0.9874770079497699 0.881323361350953 
0.8257785226852552 0.9551579682304097 1.0509551176204819 1.0672602128300694 1.0264506877416597 0.9963362814248783 1.0060395776129694 1.0133931631797402 0.9770426498167915 0.9317612362489309 0.9489413631170871 1.0291535579782898 1.0812560525243669 1.0266602351651892 0.8936985610656533 
1.0359526269672685 1.13847970100272 1.1789156350338337 1.1132028010123836 0.9849047915554991 0.8947757614532246 0.8923575946558284 0.9292153811829015 0.939124191072804 0.9310358236324284 0.9619383147465429 1.0333834652846878 1.0667201605010006 0.9959867361869543 0.8511919395153995 
1.2479818854701161 1.3222541662087033 1.2974552529161012 1.1482064560042657 0.9483980227690352 0.8232129178037335 0.8248385423890335 0.8873645716899486 0.9212435035286672 0.9185877924288307 0.9324837031887229 0.976421275474281 0.9940832727558776 0.9350287476257643 0.822303583357901 
1.3759709767402695 1.4338633891925285 1.3689170194754572 1.1795172572160253 0.9645171121119708 0.8542550133809892 0.8830657160047934 0.9610872188663538 0.9850542036413005 0.9462286347057383 0.9074964746463864 0.9037582004523784 0.9061832888143504 0.8788139905527311 0.8300806388013394 
1.3671641606404976 1.4193949931723537 1.3546768323314478 1.188184303492351 1.025699184245496 0.979374292353343 1.052031823382627 1.135081960611961 1.128884248736057 1.038434311340243 0.9399758100728344 0.8848443478999937 0.8648244947962892 0.8548386155086112 0.8514446113386352 
1.2425076572691842 1.2945872499350366 1.2603440688460181 1.1583050134408184 1.0817805591673386 1.110512765425666 1.2185050636874555 1.2972876766396808 1.2706077633785746 1.1618357524203018 1.0468617853024098 0.9708185906904228 0.9274716837373828 0.897743716032312 0.8791390169283946 
1.0783897169168721 1.1325474552909238 1.133806293564538 1.0933367551938753 1.0830389499520297 1.1520618140977998 1.2623580499502751 1.3287602130280125 1.311692297736049 1.2464494101451422 1.1863219200127089 1.1441375421971884 1.096707053296288 1.0261864196152497 0.9429142230403744 
0.9416812389846515 0.995102430347266 1.0123812181143703 0.9980179871500431 1.0080447019647558 1.0726077170614086 1.156757440413256 1.2090842374850637 1.2254732024309016 1.2423852070406742 1.2787917380515132 1.3079867853631166 1.2859502745615736 1.1932914036408988 1.052479653083064 
0.851122696281766 0.8903897540021917 0.8909390145190161 0.8655253302786658 0.8691451038853075 0.9213203577391725 0.9879191736715237 1.0379536650290828 1.086044105459896 1.1632510972921823 1.2655298452122126 1.348657564538687 1.3642032966839528 1.29108842149308 1.148992079460797 
0.8026786066758412 0.8048445864786393 0.757001669384703 0.7025838068043084 0.710099631211725 0.7868683514593129 0.8801236267999928 0.9494486480204533 1.0052022503335303 1.0743941071901928 1.1580536974890085 1.23216332050266 1.2682271604471405 1.2432078690957244 1.154308745980634 
0.8073903782333589 0.7548668931260863 0.6420749260658147 0.5587435178371387 0.593269653687634 0.7345591461550078 0.8927345290100327 0.9943250174212479 1.0310680951039375 1.0326333432314465 1.0296545722721853 1.0436235905620443 1.0768188449523695 1.099165835640801 1.0731890586985335 
0.8771186802921765 0.7777614655654412 0.6095691014571047 0.5045372438113004 0.5665465310989837 0.7658961356575803 0.978018200008274 1.0987679888271638 1.1050563845453356 1.0356061593888326 0.9542841726884507 0.9217162238258347 0.9565168680172694 1.0107643691567987 1.0139888980247451 
0.9799496103586797 0.8721882799490278 0.6848253219362812 0.56764415231822 0.6280241046550445 0.8280279337044694 1.0344700674907197 1.1399073816721748 1.1239536346287493 1.0357139428441182 0.9543147294082415 0.9470698568714536 1.0185368720580068 1.093080092991848 1.0814156299995192 
1.044775184497623 0.9759731229674531 0.8150985148168156 0.698652189393806 0.7249559069091647 0.8629150878235596 1.002948296258141 1.0651906255766628 1.0478338995844294 1.0052247302768778 1.0065903975136483 1.0917264792925496 1.2274564027057318 1.3116987806139389 1.257321736033303 
1.0295090257694217 1.0204940421767383 0.9121428484817361 0.8088581961546886 0.7933864989352205 0.8510359545103098 0.9121115158053237 0.9357702114996631 0.94004166523186 0.975467921990417 1.0851911912836865 1.266845062835457 1.4484581534937675 1.5178330886246836 1.411188809949619 

0.9889217179529656 0.8399101493507664 0.7558337396469967 0.7994394796596962 0.9667658689390959 1.1774949681877707 1.3215587332494385 1.328603932515588 1.2115524805801685 1.051421893841594 0.9281230948028493 0.8538073959679067 0.7793898666851867 0.6723055593128204 0.5721980305878671 
0.8681101343847096 0.7473503115087865 0.6761707014550393 0.7202517608410945 0.8814512484301767 1.0873545243321712 1.2295855788235286 1.2301316122125225 1.0976168293126365 0.9248585303539251 0.8106755046226511 0.7707546848086161 0.737880549613344 0.6585118029768933 0.5687227035134979 
0.7207524298532986 0.6727492444773783 0.6498937251884842 0.6995759952508045 0.8313577516240853 1.0029964368618054 1.1314047858144458 1.137935222388343 1.014994732711338 0.8494120067760562 0.7515507647974378 0.7490006051040943 0.7699868727094299 0.7424508999202603 0.6849644420404408 
0.6119289022886927 0.6419528342497512 0.6807201115120162 0.7422112574611988 0.8381292037191888 0.9634240311243244 1.0718273321964438 1.0897102877983562 0.9886583702050418 0.8390304490851495 0.7558986204902904 0.7816365011133504 0.8484314281335023 0.8695289389754156 0.8406956648776599 
0.5959531441582502 0.6748079104770339 0.7564699893399905 0.8188183156786686 0.8710799589693307 0.9434197505885553 1.0282939063701255 1.06055617475949 0.9908799258479393 0.8663148044138852 0.7968224455477366 0.8347997077310184 0.9200710327863422 0.9587321667910539 0.9296295647592911 
0.6921555732243623 0.782253833698376 0.8675056877417788 0.9001944235530807 0.8906905210417257 0.9013026985700469 0.9591449207780091 1.007330225032474 0.9764863780824504 0.8858570828685746 0.8304977946470096 0.8659523124610862 0.9423464099000238 0.9683568466952112 0.9152766303397818 
0.8724432231128474 0.9519399054783823 1.0069385098921595 0.9822681537612439 0.8995412528826048 0.8490813179660437 0.881809649766915 0.9430639473906024 0.944382271520743 0.878697800529029 0.8248480817982737 0.8418380867215842 0.8962578156255411 0.9078471176695022 0.8433737289056131 
1.062273601381558 1.1287951508382974 1.145290001186655 1.0661425641693936 0.9316050573765994 0.8489919280510013 0.8735115772507176 0.9414982853138814 0.9484215136318049 0.8714834256521959 0.7840511354970685 0.7584581763156623 0.7871880931584244 0.8061780892259175 0.7730265436409189 
1.1705661824095817 1.2290985329091202 1.2245940916029874 1.1293531847801561 0.9993192155446834 0.9393468123709529 0.9857683319297351 1.0562480335460114 1.038154855143227 0.9090674982964516 0.750869363762267 0.6582214410711318 0.6548442648432287 0.694480902522018 0.721741995674005 
1.14716910285151 1.2005650269233652 1.2022456930889132 1.1392569921869231 1.0709539169615676 1.0801917557460374 1.1705237196589586 1.243066118795976 1.1912621661058946 1.005737448389226 0.7788367215183014 0.620539274783624 0.5780112165764617 0.6211024880669802 0.6872168221224585 
1.020624137587645 1.0714637846751252 1.0982078119179215 1.0912889333159146 1.1005009240263357 1.178851444202522 1.3026657908316988 1.3746034525719184 1.3118006050553086 1.1203946374042184 0.8865965489253842 0.7091419062384217 0.6370291071251462 0.6513419198295514 0.6965340291710524 
0.8687963238279669 0.9231480368089204 0.9760387245196473 1.0106479343204453 1.0626157958425977 1.1623012322547726 1.2790234354889138 1.3413044668927725 1.3035615347535647 1.1809673252576152 1.029625298750646 0.9068038188231218 0.8400034618721163 0.8148106298324964 0.7945122496180915 
0.7480664178837104 0.8091806394926656 0.8710670445428164 0.9101669928587287 0.9548473556669271 1.025891971603281 1.1014753881588677 1.1470901351063112 1.1552156727726595 1.1422371403340466 1.1236282551844547 1.105530899048628 1.0856272173073063 1.048140579137537 0.973813399917992 
0.6625894222767861 0.718521891278674 0.7590511839502103 0.7704295333768875 0.7881176154343954 0.8292541672037668 0.8753406707059768 0.9136947757994186 0.9597691001204985 1.0290673058501003 1.111489447724756 1.1838927509483053 1.2270171571017174 1.2202723190882325 1.1465672321873681 
0.6043192037834733 0.6268606485892112 0.6124484524519703 0.5831908418866032 0.595763863091592 0.6582311302620021 0.7305482389255171 0.7877833525895588 0.8449751225831859 0.9217413759016456 1.0150601114576427 1.1118626496735269 1.1981943315163834 1.2454673603062278 1.2189980533612788 
0.5962075407736664 0.5605636368734659 0.47036901695074507 0.4027585871956435 0.4423559934415301 0.5795449575575944 0.729821374004447 0.8274676402357799 0.8700187365835198 0.889130776511342 0.9173040168636523 0.9800409350939757 1.0796984302334445 1.1728533548395323 1.1947095416493108 
0.6667518992376604 0.5783686486265708 0.4209553723373308 0.3234525772004888 0.3944325250334595 0.6066982952977857 0.8324569635798589 0.9638954056821222 0.9805659376347928 0.9310729545782463 0.8898110415077941 0.9193220538307841 1.027180333949805 1.144688493612333 1.1779398617967107 
0.7894416583510975 0.6912260762540566 0.5081658296625607 0.39341269808665047 0.4667817209833758 0.6962146381657938 0.9389275303393675 1.0710183508503541 1.0670277929457788 0.9903033766174729 0.9404968089714264 0.9905838834677761 1.1291588069624279 1.2551910516481002 1.2593084426375865 
0.8849358825666204 0.8318313172159706 0.6778906362056305 0.563442444263436 0.6046767204597461 0.7827314774228677 0.9767337166176379 1.0788853330474042 1.071170825716953 1.022055263894079 1.0307629083235952 1.15131434375983 1.3363223794993413 1.4576374996162027 1.4113583824311378 
0.9025407351444261 0.9207225410873356 0.8294968636389426 0.7311256488185219 0.7282400165971481 0.8270706480105721 0.9506017172320679 1.0224497503310062 1.0323518586301137 1.0408312078233695 1.1279816477060471 1.315854562103784 1.5240412110847106 1.6163060104833415 1.5153959096991028 

0.953801277258582 0.853288503241548 0.832922889422655 0.9147762169966053 1.0669245231729951 1.2287095357842188 1.3385795548247996 1.3527749034749967 1.2656207290741825 1.119626926707086 0.9749218568499808 0.8552183686686317 0.7389600173555737 0.6153997002294412 0.5272520149330393 
0.8780645558379367 0.7669301061483523 0.7277004233963983 0.8041472416513938 0.9711624675994767 1.1591180247876094 1.2881503148446407 1.2987345610124295 1.1866394001799163 1.016614503303232 0.8751115214952709 0.7934857102155494 0.7339988167383953 0.6618800803245337 0.606426712595377 
0.7614732202785208 0.6810242129767086 0.6535270200280103 0.72512876539389 0.882395248496328 1.0696673624071693 1.210050890858436 1.2321304421972037 1.119601693676881 0.9425046859973625 0.8088793661917096 0.7687173275111667 0.7821188163511261 0.7902593915798073 0.7916917461003299 
0.6533457088624931 0.6182371323400637 0.6234774686305073 0.6978983335234259 0.8345237973106897 1.0027316840941976 1.144517760432496 1.1840448946191096 1.0867992627008962 0.9144067560425773 0.7873160114880395 0.7767432749442049 0.8499846984783707 0.9287055866831235 0.9762348678717881 
0.6114430308505505 0.6108232220555148 0.6476808709189923 0.7214342224824163 0.824095614926691 0.9532655850051468 1.0807495044102047 1.1363531201546486 1.0677571168689504 0.9167697563123054 0.8007506396108115 0.8038398918965631 0.9036851254106147 1.0119528855403859 1.066276249747043 
0.6659171720173884 0.6828154645790856 0.7341652574997801 0.7897225805424758 0.8386624880605766 0.9070518857714136 1.0014541634857577 1.0652934733030803 1.03203730532413 0.9164062338328559 0.8176916212706308 0.8216395347180048 0.9170868775448869 1.0169877194130668 1.0469465754658787 
0.7959130046133369 0.823910871131063 0.8751062277786584 0.8997001731834958 0.8883570514113098 0.8916171289742968 0.9447860818686076 1.0043001340716944 0.9933163980588002 0.9010508615966445 0.8056716096071795 0.7923864364580935 0.8657039061623388 0.9492563331157687 0.9633665239698381 
0.9331760434247601 0.9746818717663374 1.025399036406725 1.030476442502228 0.9867041418970685 0.956794223229846 0.9851908906341389 1.0302565778435349 1.0083187494585912 0.8950101810722014 0.7597013350304507 0.6973648313397119 0.7371377798864148 0.8191889952776391 0.8567753558586365 
0.9996900583253022 1.0536244222898379 1.1137525094111425 1.131538713670346 1.1096051924335673 1.104262868423984 1.1438551970374742 1.1748387681077257 1.1114648887808185 0.9319757558764576 0.7133433484328386 0.5711804223359418 0.5649771254862851 0.6536208307663002 0.741255427211841 
0.9624300568348915 1.0208534145998693 1.0987936981729 1.1565612535675087 1.197855505102449 1.2582246833076922 1.3356508253849704 1.361631813467378 1.2568936006753235 1.0127429730453577 0.716689516727463 0.49929484430828497 0.442796304182978 0.5230959888788373 0.6412581811155382 
0.8570320336432649 0.9154313115024786 1.0113744201641952 1.1073970365286787 1.204166100484896 1.3166254192602376 1.4205176896760465 1.4471378504608112 1.3359173793738726 1.0903579193186153 0.7912469736368777 0.5575468359907576 0.4721263680092527 0.5223538334203872 0.6193142868069234 
0.7480807351524861 0.8128421458388271 0.9188767821593917 1.0221410725147184 1.121679660721526 1.2257441453859557 1.3115600084905938 1.333643232306641 1.260693188746739 1.0996094358857087 0.8994437698426156 0.736523783670995 0.6700391966114122 0.691247696179411 0.7315986059297737 
0.6646104753269357 0.742627609019572 0.8429411009376802 0.9151477575078673 0.964574639420573 1.0076877957098398 1.0404639194791745 1.0520998704986981 1.041234615422216 1.0103628859596454 0.9659727393368741 0.9309270078946416 0.9310271137203223 0.9549207717812099 0.9527002791521519 
0.5881854327803401 0.6674561595075899 0.7367169953806145 0.7554563868305859 0.7465354654195404 0.7369285188289707 0.733760570928418 0.7460298088089269 0.7892930145933995 0.8617883431856581 0.9430709289212872 1.0228283154032072 1.1042127273404947 1.1690835877743422 1.171987554290816 
0.5077306327761386 0.5542108281719342 0.5619228853310262 0.5272211010281667 0.49979408127827685 0.5048463928985657 0.5311852413746467 0.5731925827712783 0.6429230255999593 0.7428081516258703 0.8593840488782649 0.9869594505939898 1.125625416717076 1.2460351123841216 1.289007265847878 
0.4615172668767118 0.44369910671919743 0.3707758173005187 0.29666662158659796 0.30016954811987273 0.389170392724403 0.5061664292416724 0.6014070163314357 0.6688014628667757 0.7263377555267493 0.7980802035613574 0.9113562331831044 1.0726756071690855 1.233441648200705 1.3090848163065576 
0.49791363970987734 0.41959620610246395 0.27860402816778973 0.18383130243600387 0.23608965677770422 0.42127384020913505 0.6328432206018091 0.7739446500170433 0.8204410444263558 0.8129583923641436 0.8224784425999759 0.9107475316523643 1.0813552406347522 1.2562411641350426 1.32633785591932 
0.6024473816112957 0.5105276670214063 0.34956207045904464 0.2547449113971261 0.334709371622924 0.564539987073668 0.8152526605229298 0.9668095692063097 0.9880731819285814 0.9399273040099471 0.9266632939175333 1.0235085947221816 1.212338514946706 1.380947645155231 1.408920154477498 
0.6988895303993446 0.6537330501587939 0.532643720528795 0.4576450296790058 0.5304200442546816 0.7351388632390354 0.9584838439414118 1.0880591077580486 1.094642519006102 1.0470083094689537 1.058414067275671 1.1938959850302182 1.4031447673223414 1.5482784180339624 1.5179089470237523 
0.7372065759666877 0.7685956186004552 0.7214242136079418 0.6763984320383776 0.7195678804145278 0.8604934635854058 1.0277236257538322 1.1327682405502106 1.1457065085993905 1.126054239516126 1.1759663343500555 1.3399529804711414 1.5424646904797052 1.640564342226181 1.5518876813590659 

0.887429980182103 0.8283573465552205 0.8551595969535267 0.9653358373481511 1.1109786348348645 1.2485266889979993 1.3532188542151182 1.398388575649102 1.3568418469503463 1.23350343482189 1.071701198464619 0.9119928481046232 0.7642225368103583 0.6352718003890825 0.5597051350493766 
0.8515199888615423 0.7581969732028767 0.7526583877347783 0.8659922296088742 1.0515308619036614 1.2370559370010714 1.3631122522812147 1.3882781794429242 1.3012934171928476 1.1415405610073028 0.9801579055503781 0.862148481142311 0.7812728757944267 0.7211619004894968 0.6968300798357725 
0.7826127373578583 0.6863780112825597 0.6667113477591955 0.7736268214080728 0.970317569768198 1.1782925332309238 1.3206796060170187 1.3416675923584012 1.2322240103744047 1.0517512836744851 0.8968558170301661 0.8279465684386359 0.8342344063356374 0.8732935628887939 0.9227650366478523 
0.7134650623600747 0.6309032821798276 0.6158782706323878 0.7166369670253991 0.9043095684009939 1.110036998065951 1.2584431818538384 1.2864477209928054 1.1783478091364945 0.996756232645541 0.8524657324505538 0.8226516715740049 0.9005022324169637 1.0222522014686222 1.125998088003438 
0.6940313295477887 0.6269019402061323 0.6244782799184007 0.7144345241235571 0.8690639764797163 1.0397611367656585 1.172066144610095 1.2094038584175961 1.1272204708400466 0.9741456266050034 0.8546382663827339 0.8517156909393937 0.9651921320731196 1.121002449215669 1.2309195981040382 
0.747427729409432 0.6962377909019075 0.7070091925944596 0.7767033044733951 0.8740054383416489 0.9765907159264442 1.0650978512026859 1.102936902195798 1.0593336230572232 0.9570594345646224 0.875106250403274 0.8888671973121319 1.0051428126926654 1.152177956009971 1.2324606510469078 
0.8470134225857606 0.8196129100747964 0.8479209011744672 0.8994959037993077 0.9386273364783344 0.9669377019035391 0.9993765494220115 1.0221469974735773 1.0019407297149563 0.9357920006599737 0.8738266810927902 0.8820723579276152 0.9788506680229969 1.104577087635073 1.1613790564528241 
0.931987789678189 0.9356914075103233 0.9916269503167544 1.0485764373338364 1.0674476473125438 1.0604184106295895 1.0571346271221869 1.0543647605658388 1.0182370807125658 0.9327882574064177 0.8351357540433727 0.7955746523210725 0.8536971221113165 0.9674404154280689 1.037496173820327 
0.9504094693854072 0.9795923614203824 1.0689850432765793 1.1620159715062912 1.2171480668631594 1.2386192923248724 1.2430044841428523 1.2187911619581775 1.132291335084667 0.9715713598869786 0.7823156075849718 0.6548554782416895 0.6569118651993651 0.764608035383407 0.8741097412182277 
0.8987248858989078 0.9378539308805318 1.0541260928906175 1.1937062447659361 1.3142630417141816 1.4018278445990418 1.4444269555140785 1.4131774150854628 1.2771881808505368 1.0382326678385903 0.7578741197607223 0.5455826186279412 0.490777966779292 0.583905126465474 0.7198054962077418 
0.8211497798346502 0.8628184338470599 0.991140770676066 1.1534572100671265 1.3109268160855123 1.4388662925974214 1.5066487940967228 1.4783750165249094 1.3320362197833253 1.0797329305437178 0.7839454548951623 0.5504737063777624 0.4697928887966757 0.539442330038317 0.6624283580111991 
0.7617739204773455 0.816291503127829 0.942739231929023 1.0826963464530437 1.2081907768088638 1.3046419255287327 1.3500419438508913 1.3232254997662074 1.2170697174314884 1.0418849780085395 0.8359969491838681 0.6725727889452091 0.6207147625861156 0.6775226593816137 0.7621129155840611 
0.7168067808013245 0.79652754766258 0.9084147238859664 0.9872882913183476 1.0247935638060701 1.0342465454527336 1.0225599514731423 0.9957210907875738 0.9605155291838592 0.9147346004207217 0.8593884543183201 0.8236791519443153 0.8469869560027532 0.921336371405079 0.9806325266725592 
0.6469829988534854 0.7400806894828336 0.8179275305414906 0.8225033286598684 0.7722363510075155 0.7082720762630155 0.6599531021098948 0.6486782926239651 0.6840864338956025 0.7502058511806029 0.8222987459153434 0.9021885057717323 1.0096190927795172 1.129701706855757 1.1999280393012273 
0.5418321178002236 0.6080462163771141 0.6252223920080449 0.5678334412389318 0.4834793627992343 0.42237729195275264 0.40579492887286905 0.4405830081475386 0.5240720951685888 0.6359525226228155 0.7553980721015376 0.8888404915890721 1.0530785147063146 1.223249893196821 1.325995776337169 
0.4527443721993587 0.45302131807504875 0.3932569858118473 0.3007415544907083 0.24728783139441102 0.26820298910773166 0.345614562499282 0.44629845706562343 0.5473111467933831 0.638659633222997 0.7317181059758334 0.861098642289924 1.0470730939091621 1.2471339765142218 1.368074548810955 
0.44120559292470574 0.3752871020478039 0.25524796020831264 0.15929084763292534 0.17088829545802076 0.2976861015949904 0.475080689003172 0.6280809318038292 0.7186552265089705 0.7584202317051112 0.8013810412898109 0.9109896708114923 1.1013759905911635 1.3028753342144266 1.404332390240922 
0.5024770734443355 0.41639894135270916 0.28792020462354395 0.2189780489334635 0.2884490870412466 0.4820759212083321 0.7096124056260023 0.8758317586271148 0.9397963956204668 0.9353128371212095 0.9489061706394846 1.0557243527268483 1.2484243925027052 1.4272991675652114 1.4761509629462286 
0.5700764671852718 0.5238321110738651 0.44609920814296444 0.4250155472086795 0.52205213519878 0.7200647160074427 0.9374904591862824 1.0852980206932994 1.1259117952121742 1.1033046263291697 1.1157169321646188 1.2318970730423735 1.4174433510386482 1.5527398705873425 1.535606493195403 
0.6037278394117573 0.6278407763211554 0.6297129850724024 0.6569870731470504 0.7500090050348578 0.909038137087296 1.0875510868314087 1.2158623699583333 1.2534017802348094 1.2354918588186625 1.2536894316152194 1.3637852398042503 1.5139105077891277 1.5843704157310305 1.5041377586732545 

0.7995015992001914 0.7664846629250139 0.8026483299034002 0.9028603632769375 1.0276045130029752 1.1550267591004024 1.282547921798869 1.385340714342508 1.4116443134604044 1.3337434082071624 1.1807481190907814 1.0070759347796434 0.8484616799136468 0.7237135112081035 0.655455178160359 
0.7749334875674219 0.7040124118129876 0.7160161689412334 0.8412656823128358 1.0308557122795636 1.2165377760563088 1.351371722689465 1.4043295602842887 1.3586206748615144 1.232398243555481 1.0786866137209048 0.9473949397101091 0.8568711841245132 0.8073542438564885 0.8010501743237687 
0.7388043315776675 0.6498663395409107 0.6440881849599428 0.777850304061362 1.0031273046633604 1.2240766092871325 1.361223013992289 1.3754340094194024 1.2739921152374138 1.111590567636803 0.9655471412895149 0.8901175555517145 0.8927352816123302 0.9487578079887306 1.0232333950337091 
0.7170579646582516 0.6233920180030238 0.6098608103163545 0.7405112048901519 0.9708532377772481 1.1971647004398875 1.3273719105244228 1.3197843311259807 1.194470453017221 1.0242234653473643 0.8983518709609535 0.8750824073469714 0.9568911455055195 1.097792667613917 1.225927493786011 
0.748363765624692 0.6571275907451293 0.6421561220169923 0.7540400421877411 0.9494261563273722 1.135897377923579 1.2351122354827155 1.2173366055464698 1.1083401249847173 0.9757218570124472 0.8965602079687892 0.9207842979384833 1.048022937053723 1.2224292243105594 1.3511178454376447 