# vtk DataFile Version 3.0
vtk output
ASCII
DATASET STRUCTURED_POINTS
DIMENSIONS 15 20 65
SPACING 1 1 1
ORIGIN 0 0 0
POINT_DATA 19500
SCALARS Image float 1
LOOKUP_TABLE default
0.959465676451 0.810532492707 0.730809237652 0.76261711446 0.879172318804 1.04428493262 1.24135133071 1.431276657 1.53081986871 1.48345092589 1.34248831104 1.2425231143 1.27638560723 1.41432206735 1.54150404789 
0.96472864151 0.750722489829 0.64831147652 0.699984147134 0.852002494036 1.03586532351 1.21333468974 1.34982612226 1.40078523909 1.35650286653 1.2744549698 1.23535950019 1.27121354524 1.34681800122 1.39764224112 
0.945173993127 0.727009805714 0.665396568373 0.769308949774 0.954855874206 1.13436374064 1.25548774641 1.28938039558 1.23903831799 1.16309537382 1.14588707409 1.2197800349 1.33206671148 1.39580862818 1.35929321088 
0.967862890254 0.778089999417 0.757314113015 0.876595742447 1.04565541513 1.19309131034 1.27440513493 1.25903858934 1.16217597722 1.06985973286 1.0809415928 1.21167929961 1.37556963078 1.45639168121 1.39076970867 
1.01243984857 0.871354297582 0.873574908677 0.96000723699 1.05418670955 1.12768002845 1.1718348326 1.16742919401 1.11740442699 1.07612648436 1.10684780277 1.21614940398 1.34563767687 1.41544817699 1.36910753742 
1.03821419444 0.915873700719 0.913237558688 0.964919389791 1.00550123779 1.02370386146 1.0301396544 1.02764980277 1.0256844916 1.04607049602 1.09771029375 1.16681796588 1.23592434835 1.2866358513 1.28392201901 
1.1121190765 0.951693599924 0.879422880143 0.877721721872 0.911644374512 0.953431578043 0.977477910481 0.975624788692 0.970632927652 0.985330222626 1.00977929774 1.0270034854 1.05359617596 1.11413053785 1.18277187227 
1.26479592808 1.08310800581 0.91153341983 0.81272801106 0.823626987 0.916430138387 1.01062321572 1.04906269629 1.03997181991 1.01217423714 0.969188510002 0.917668764619 0.903843364686 0.971655409818 1.09590062495 
1.3967260397 1.25496239326 1.03510331273 0.852050435087 0.815570615441 0.926260709976 1.07889765336 1.17190960565 1.18003209981 1.12470919582 1.03117100892 0.93950823052 0.910296046996 0.974732071967 1.09631121887 
1.44580937884 1.33676557862 1.11235197887 0.898711035768 0.835669895847 0.947472236694 1.13377686042 1.27428075636 1.30930218241 1.24084304589 1.11569677015 1.01571342746 1.01167596241 1.09852613365 1.20198697353 
1.43200289292 1.30657648084 1.07827784542 0.864518145647 0.791490507299 0.88936332965 1.08591560899 1.2748277511 1.36832770083 1.32566054128 1.18651178668 1.06536632701 1.06032293123 1.15747755789 1.25458485721 
1.34743550221 1.19030682655 0.977841513249 0.802510770328 0.736329836127 0.791128500076 0.940101016775 1.13622319964 1.29918847887 1.3396702457 1.24269795957 1.10308850055 1.03708938493 1.06794518292 1.12481688084 
1.21921392856 1.02047542233 0.843458366905 0.75715646185 0.755223121613 0.793775134389 0.867002429425 0.998888051688 1.16219321765 1.26262649886 1.23174788833 1.10356241794 0.97381576071 0.906570523132 0.899479459999 
1.15421687873 0.908134151053 0.741389563528 0.729812053566 0.81886710774 0.905119699361 0.95826340058 1.0231250014 1.11820359397 1.18600565001 1.1559477869 1.02314731419 0.852762704195 0.729261589524 0.70403301626 
1.16151415722 0.92844125781 0.771971990192 0.779300266187 0.900546963266 1.02546613138 1.1019438607 1.15001255707 1.1868204762 1.18311412951 1.09590184605 0.92058727639 0.711531521786 0.563603735354 0.555178530076 
1.13336146933 0.994739009124 0.905388959276 0.923344393372 1.01525500892 1.11350161502 1.18614658632 1.23395131223 1.24826178517 1.2004723594 1.06701940085 0.856134300282 0.623217127418 0.462351403795 0.451639757575 
1.0530197865 1.02267526329 1.02067855994 1.05468515862 1.09900221373 1.14093812291 1.19253862652 1.25161411065 1.2779970011 1.22015309788 1.05601796434 0.812707439756 0.564439502924 0.403870913885 0.383126028989 
0.983608126341 1.04119434943 1.09083093177 1.11012608612 1.09055069933 1.074606403 1.12071561484 1.2295946694 1.32381001492 1.30296452151 1.11876503291 0.815452828623 0.512502722013 0.329747052919 0.301368927447 
0.917051486323 1.04556616561 1.1287751623 1.13301019166 1.06553008903 1.00338625844 1.03779131657 1.18426213989 1.35200676609 1.40037317505 1.23938610637 0.905402314435 0.547401257117 0.316273760404 0.251564192171 
0.847049250076 0.989272213616 1.09522549399 1.13044669031 1.09420910068 1.04552123185 1.06329315183 1.17608658593 1.32434232558 1.38834690702 1.27466979087 1.00113271232 0.691736811792 0.468708848089 0.357176698686 

1.00617134509 0.827683346561 0.730548490804 0.770444682145 0.923108343242 1.13487248804 1.36987022993 1.58233522733 1.6811663033 1.59242127767 1.36961633772 1.18756744408 1.18707384558 1.34184291738 1.49975387579 
1.03349076902 0.810058485062 0.707764339886 0.771253156788 0.944329112513 1.14882389135 1.34302503857 1.49381478326 1.54316923514 1.45671441041 1.29333553568 1.17522043347 1.17319287851 1.24593923995 1.2997617895 
1.02749436331 0.793635691102 0.730360105281 0.845720504615 1.04530873422 1.22991841044 1.35059771209 1.38642365321 1.32899842199 1.21593247087 1.13749527527 1.16044570977 1.24901747152 1.29247307379 1.21635107097 
1.06641740912 0.841933520417 0.79898752619 0.914948136193 1.08758153973 1.23059924468 1.30180615128 1.27897510837 1.17054060325 1.05246897236 1.03631586441 1.16041400433 1.3276029995 1.37857902833 1.2324284081 
1.14605553986 0.958422244082 0.9137622289 0.970500805908 1.04862435376 1.10785686921 1.13816258595 1.12260852449 1.059675067 1.00622981217 1.0454240979 1.19290056678 1.35475893141 1.3936920535 1.24010584445 
1.23016976452 1.06586597199 0.999113366133 0.991717839715 0.991343871118 0.987018251959 0.985291821314 0.979029435822 0.968421933367 0.985866863731 1.06663718022 1.19873893192 1.31654378463 1.3404443471 1.22557507927 
1.35735509267 1.1741572383 1.03586620457 0.955582661629 0.928648241499 0.944570882009 0.974266877696 0.986325906086 0.984154373529 1.00158130453 1.05732985048 1.13477247073 1.20415180555 1.23750767599 1.20375069132 
1.51596022709 1.32798032293 1.10359773281 0.93206643197 0.885909395289 0.962560124859 1.07758713542 1.14317061626 1.14336302872 1.11754389694 1.09678100267 1.08807869549 1.09941359736 1.13526707655 1.16970877549 
1.60354588994 1.44645355237 1.18617603441 0.959968154683 0.903166899389 1.02962699309 1.21981805863 1.33899078544 1.34405309948 1.27383225279 1.18268694393 1.113071039 1.0956051306 1.13022306674 1.17822421794 
1.59453150042 1.43850914071 1.17247328418 0.947712294944 0.914514469577 1.08542996122 1.32686783857 1.48442655203 1.49285365391 1.38191041035 1.23101040879 1.12922101749 1.12684740299 1.19219693473 1.24266335058 
1.52982938186 1.33260261029 1.05792043269 0.853796407641 0.84598634243 1.03136078534 1.29001720211 1.48526619337 1.53606266394 1.43429134142 1.24964114462 1.10580475713 1.08943220656 1.16564238471 1.22155660173 
1.39171165604 1.16460233261 0.91279778877 0.759252518179 0.769762759938 0.913507229897 1.11488380086 1.30726396264 1.42681122688 1.41360535918 1.27230094425 1.10280012336 1.01391794128 1.0128386026 1.02234436765 
1.19975424476 0.956003302612 0.760219012675 0.703521959536 0.770572542765 0.87841065991 0.984505767777 1.10743796384 1.24003576449 1.30755773843 1.24894189092 1.09771928731 0.941106156425 0.827794046977 0.755856481965 
1.07161152259 0.817089337341 0.663042679497 0.689826791686 0.828923185369 0.949960053073 1.0085331208 1.05995022239 1.14041478903 1.19892605635 1.16339504292 1.02539176577 0.836053745574 0.658441698203 0.549279623538 
1.03941652934 0.831802192753 0.726644834897 0.789761743342 0.943043488046 1.06061147737 1.10344656981 1.12017436763 1.14347576709 1.14172206352 1.06933781216 0.918447577932 0.718239095098 0.526099058712 0.423147035829 
1.01780633346 0.923008002854 0.917490489886 1.01196679519 1.12379052632 1.1750730097 1.17064410742 1.15585111945 1.13700057317 1.08168359903 0.972197963533 0.819053229174 0.64021109952 0.470055047568 0.376847295975 
0.982767368845 1.00167860059 1.09877884579 1.21665036537 1.26450298435 1.22499844151 1.16519335892 1.13607926846 1.10817091346 1.02564093837 0.883036775573 0.718737512124 0.564662158262 0.43989704898 0.373475232005 
0.955312305836 1.06596272701 1.21596141146 1.30856871306 1.26731824653 1.14211583988 1.06015683056 1.07520702013 1.1108899085 1.05862853951 0.89169668351 0.67106285818 0.477310515384 0.360847687401 0.331369203222 
0.900436701704 1.08465387267 1.26021512943 1.31754710628 1.20658274032 1.02777429878 0.945097129757 1.01499938515 1.13464960268 1.15276023966 1.00327532588 0.739993199026 0.479725749529 0.321414734736 0.291092361379 
0.829049047397 1.02543583234 1.20721404456 1.27123105072 1.18256961213 1.04024369929 0.985693008419 1.06107179531 1.1780827511 1.20933338892 1.09202435214 0.862395138372 0.619592656023 0.454916029596 0.395508684034 

1.06039643089 0.871301354859 0.775550343412 0.824774605771 0.998168759086 1.23761586366 1.49438278504 1.71322411904 1.79640844709 1.66052644063 1.35927751541 1.09286731682 1.03727666223 1.17870860838 1.35325709526 
1.10690727816 0.887819047548 0.797932703865 0.873018902473 1.05801605796 1.2736000901 1.47550066815 1.62916420555 1.66640422326 1.53407727749 1.28903664603 1.0839867106 1.02699104118 1.08650609038 1.15853920174 
1.0866834342 0.850234775318 0.791630784253 0.915011672946 1.12378795479 1.31362995528 1.43693618407 1.47784295157 1.4180459666 1.27272367097 1.12898938176 1.08279084844 1.12846909819 1.15732603376 1.08632511888 
1.09506622973 0.85028604776 0.79062936008 0.902946098776 1.08330351893 1.23366352773 1.30976766518 1.29525635323 1.19139320015 1.05693391202 1.00440496642 1.09516733329 1.24495434129 1.28207761723 1.11767444117 
1.16013916204 0.941006146695 0.861047679102 0.901068808057 0.98362542772 1.05371447424 1.09354250751 1.08701891478 1.0272272108 0.965280892364 0.99565524837 1.15068458489 1.32748826065 1.35764243386 1.16126434654 
1.26406166592 1.07468403018 0.967566682005 0.932712351342 0.928107392899 0.93482053486 0.950441856738 0.958967747231 0.949592446769 0.957249157833 1.04105635635 1.20523989373 1.36075415267 1.38287170996 1.21164875123 
1.41977431646 1.23774541534 1.07230920227 0.959596448507 0.913132591278 0.931749787183 0.986353241884 1.02835409412 1.03699520624 1.04584610766 1.10326656727 1.21244081292 1.31940176098 1.35027651401 1.25724233343 
1.5697032546 1.41180212665 1.18637366581 0.991402754366 0.917577677711 0.987404216269 1.12992153096 1.23847654773 1.26245789949 1.23331083704 1.20964861931 1.22016057111 1.25496229837 1.28082843646 1.25729770207 
1.6083732042 1.48585795267 1.24328935489 1.01476785338 0.944689620249 1.07225781742 1.29422727079 1.45718199984 1.48301228632 1.40296150601 1.29853435954 1.23492458203 1.23077553274 1.25486566407 1.25352668768 
1.55400127058 1.41034128907 1.16062150251 0.952604354819 0.936221190715 1.13553492372 1.41996518971 1.61199795215 1.61889215845 1.47424331747 1.29097967806 1.18333984839 1.19260040044 1.25688485103 1.2741368503 
1.48028455585 1.27274662423 1.0052233838 0.828124014736 0.863334610907 1.10372418439 1.41348082594 1.62663916163 1.64611695741 1.48414039087 1.25223386922 1.09900820291 1.09882697031 1.1823883091 1.21423832223 
1.36501526203 1.12557284898 0.881103414959 0.758826620376 0.822531099145 1.03029207543 1.2785820099 1.46893008306 1.53293865004 1.4454035895 1.25811655126 1.09055448147 1.02838494702 1.03508301096 1.01154771327 
1.20438959802 0.968698833071 0.793370124468 0.766864821723 0.876988207235 1.03557365597 1.17395650476 1.28117841447 1.35084466121 1.34768538617 1.25776784334 1.12741028303 1.00801491899 0.894013682632 0.765449223174 
1.09081067434 0.878923883809 0.770799773295 0.827149104961 0.985107068631 1.12424780412 1.19033302118 1.21815818888 1.24375183685 1.2490704293 1.20325666368 1.1047140323 0.958843435664 0.766196805323 0.571359187409 
1.04821941904 0.914961875746 0.889241598295 0.993868362283 1.14791506095 1.24631794209 1.26170789728 1.23815897607 1.20925394976 1.16857428227 1.10576747288 1.01522353389 0.871245328765 0.659528929625 0.451524886302 
1.01245548203 1.00285901631 1.10196486318 1.25935979008 1.37200818781 1.38008655204 1.31341280393 1.22873325896 1.14030749443 1.04173739781 0.951807715053 0.882352926646 0.787883280702 0.619699354639 0.431118940357 
0.980534445712 1.07522021276 1.28000508827 1.47207851603 1.52596782365 1.43240685129 1.28578429211 1.15769245067 1.03508450654 0.895227367561 0.774928901712 0.714466575667 0.677076260927 0.593096803622 0.471120464829 
0.964130840144 1.13518802914 1.37681686677 1.5337848473 1.49271752954 1.3057916783 1.12455620509 1.02478442301 0.951965382023 0.83771879373 0.700235932544 0.598138893731 0.540658709662 0.496042470839 0.458942773997 
0.912064436624 1.14307213624 1.38293900416 1.47656231209 1.34880397942 1.10585874291 0.929959543877 0.890959787077 0.906302772396 0.869438017946 0.758726100364 0.61778119897 0.49195133317 0.415081775004 0.41420393971 
0.838124932574 1.07356507582 1.28781460783 1.34862563358 1.22104640014 1.02371946685 0.907894765678 0.908506723323 0.944439904745 0.932076368813 0.852328714033 0.727369181652 0.591932284966 0.495989155153 0.486368924421 

1.10019918661 0.921991200956 0.843900533498 0.908092951255 1.09069866164 1.32469673518 1.55120449999 1.72358015283 1.76960335047 1.6183470986 1.30676121887 1.01107168345 0.905698813354 0.999106101083 1.15390751048 
1.15496482309 0.941856965034 0.866569189705 0.957076961233 1.1513092249 1.35723015851 1.5258029219 1.64000245781 1.65460162402 1.51478380513 1.25311679298 1.00836856628 0.90291750745 0.932122051407 1.01080502329 
1.11231248438 0.865936189775 0.804407230133 0.934404727038 1.15190795898 1.33583966501 1.4373748498 1.46346159466 1.41191602732 1.27997560178 1.12287396862 1.03181081969 1.02979760899 1.04082737328 0.996699454703 
1.07994869639 0.808355088523 0.723866799157 0.83008254113 1.01871985091 1.17209038835 1.24463596032 1.24172745202 1.17230984784 1.06774856244 1.00886026424 1.05991885021 1.16956457905 1.19651758101 1.06370789305 
1.10481013387 0.851396714511 0.737331922567 0.768414123915 0.864093735063 0.948370920909 1.00040437 1.01955791388 0.998527863167 0.96252031837 0.986966402113 1.11576174616 1.27151340615 1.30065457004 1.12730302806 
1.18317757515 0.968632979942 0.83827920989 0.803978140554 0.818814750841 0.847278048414 0.886262324381 0.926156044835 0.944646680356 0.956002087511 1.02077328994 1.16763963797 1.32356934779 1.35765531501 1.2008593103 
1.31646447511 1.13996625354 0.982718677605 0.886299693712 0.855486392539 0.887291449504 0.966006256595 1.04438220798 1.0753767606 1.07027909013 1.09350309412 1.1846433386 1.30190507905 1.35215835878 1.26861458186 
1.42482179496 1.31316528778 1.13816359981 0.978088118209 0.908055005043 0.967828405014 1.12184803631 1.26751976762 1.31673921927 1.27227113954 1.2119054279 1.20414322491 1.24995333175 1.29414924684 1.27547148325 
1.41319538471 1.36262850484 1.20051593565 1.02137959191 0.947870243823 1.04872123243 1.2695964007 1.46341216674 1.51160387761 1.41697736517 1.28095360733 1.2052124603 1.21551902846 1.25894999204 1.26241582151 
1.3387705602 1.26944733498 1.10428038199 0.947287077953 0.928614745092 1.10472932509 1.38862473698 1.60142043899 1.6132641074 1.44242597675 1.22944300943 1.12041944785 1.15554217814 1.24797015614 1.27638087551 
1.29856572401 1.15835592584 0.964262780693 0.830010442322 0.868501432821 1.10283718678 1.42116138531 1.6400422158 1.63343436755 1.42278052731 1.16244610696 1.02725991156 1.07476638825 1.19948376845 1.24503917013 
1.26425736977 1.08816160268 0.905563148099 0.815343154897 0.887107541158 1.1070499087 1.37267741397 1.55042020234 1.55320797043 1.39335019063 1.1834517461 1.06273833048 1.07837058254 1.13859543062 1.11954555305 
1.20478424008 1.0362613152 0.915989444222 0.907764411563 1.02085458129 1.19901923339 1.36006006676 1.44478167191 1.43384173927 1.34750899063 1.24401495846 1.18416067082 1.16351120123 1.10464030017 0.960094445574 
1.16658656502 1.03562368114 0.986076323552 1.04928240026 1.1947919125 1.34378384081 1.42924162803 1.43599880677 1.38759403028 1.32104789086 1.27375469532 1.25285562225 1.20199820511 1.04622851476 0.806690934579 
1.13709244935 1.09901555968 1.14708903765 1.26383508645 1.39896192195 1.49270614897 1.51395372014 1.46833044157 1.38062854195 1.28960133895 1.23811162161 1.22157323577 1.15466527613 0.954572344234 0.677726809289 
1.06407436063 1.14720279147 1.33234034094 1.52297412684 1.63354549611 1.63711684464 1.5621830589 1.44324489608 1.29753692482 1.15901860191 1.08642507655 1.08612458359 1.05779941084 0.893749220982 0.637821075484 
0.988614315227 1.15410641686 1.43885012044 1.68140008516 1.76013419735 1.67534852817 1.51144738283 1.33006600175 1.13742524389 0.955267885008 0.85388273763 0.862929918395 0.89441579956 0.828945143389 0.669302812811 
0.950810230479 1.16335102752 1.46098056953 1.66684276117 1.66526680496 1.49649340816 1.28948529435 1.11691000908 0.959030161465 0.800665857772 0.690437481025 0.668381065103 0.69088983432 0.685016320193 0.64694084413 
0.901521641728 1.14844337989 1.41012936032 1.52935611191 1.43301757664 1.20569448659 0.997902274123 0.876755134924 0.80188760634 0.726109871038 0.656155816323 0.608417936672 0.571411759792 0.545926476838 0.570872988918 
0.841579774117 1.08241393057 1.28457505028 1.33046934274 1.20263413835 1.00654670498 0.862143086422 0.795236436215 0.758567971551 0.721927473883 0.690396876672 0.656200040709 0.601242673993 0.554946323767 0.585810672562 

1.12142594633 0.969707305218 0.916695376846 0.999967863756 1.18399840788 1.380718137 1.52104476505 1.58839620054 1.57321423461 1.44399693495 1.20888278261 0.971330016024 0.858107972282 0.891804450775 0.984163972467 
1.1744871123 0.966205664029 0.902948423354 1.0126267114 1.21498254292 1.38836464129 1.47536594868 1.49761638539 1.47082604645 1.36384927682 1.17045575005 0.969032978255 0.857127232397 0.851737644175 0.902498684562 
1.12889819814 0.866214630334 0.793649333111 0.928458048268 1.15053792489 1.3082240752 1.34869760711 1.32035284194 1.26885152799 1.19060380591 1.09080814591 1.01662471662 0.995154564306 0.988080036884 0.956396575396 
1.0926406694 0.794156793223 0.678794971772 0.770670771467 0.953034495876 1.08410749711 1.12046053485 1.10524147671 1.07526288121 1.03796439874 1.01968156436 1.05857554548 1.13033765655 1.14361234831 1.05054790779 
1.09854534005 0.819763797106 0.673468365942 0.686942780569 0.774052209119 0.841792237188 0.876911159052 0.90880772482 0.93885298234 0.957255709931 0.995220537497 1.09026516041 1.20096736551 1.2196544754 1.09547521836 
1.13685172835 0.90915742711 0.766826494031 0.732954573087 0.749300091936 0.768869420756 0.801810431636 0.859640580042 0.912542179363 0.940041275255 0.981205022873 1.08026310576 1.19889064372 1.23406024407 1.12923348465 
1.2122980156 1.05018573962 0.92006214114 0.853503308021 0.832365101263 0.850718315728 0.91854787602 1.00645384618 1.04792897642 1.02215321521 0.992793349645 1.03117472683 1.12451971421 1.18899367066 1.15794602516 
1.25865422783 1.2004123893 1.09974011459 0.997726787502 0.934006715585 0.957720319258 1.07778520697 1.21452005376 1.25612316872 1.17580201233 1.05988936554 1.01039620706 1.04714868078 1.11289294268 1.14243428124 
1.21033238676 1.24723211159 1.19260589844 1.08379015308 1.00349696772 1.04278449267 1.20516824802 1.37019826941 1.39764429784 1.26766875156 1.09316333623 0.999622753976 1.0176304861 1.08714531688 1.1341438618 
1.14695458258 1.18508322343 1.13343217351 1.03528518132 0.991919964334 1.09433922072 1.31183732907 1.4838649237 1.46228549922 1.25742593294 1.02700496129 0.928202099475 0.989915124595 1.11475434237 1.18549031744 
1.16006810343 1.1344077062 1.04040827399 0.940492963516 0.940961186685 1.10814702105 1.36958126093 1.54020131895 1.48052704678 1.22831150967 0.96861760931 0.876330610533 0.978022463195 1.14799600518 1.23470864291 
1.20750084253 1.13905034486 1.03332729367 0.953214830083 0.985609711342 1.16187865119 1.39181245896 1.51499632626 1.43765847952 1.21834824414 1.02054027398 0.977669636025 1.08527292984 1.21281462922 1.23245470079 
1.24526129142 1.16693546088 1.09509778359 1.073859615 1.15087788978 1.31382540849 1.46677209386 1.50134579338 1.39529439755 1.23601499542 1.14773775242 1.185472838 1.28267487283 1.30804350462 1.19720850066 
1.28466173704 1.2287830116 1.20561475761 1.23792837425 1.34780817983 1.49986345174 1.60043089578 1.57635766683 1.4484069404 1.3200937937 1.28999682272 1.3589224814 1.41483464942 1.3326607169 1.11269491494 
1.26891120104 1.29645064659 1.36474561292 1.45137925425 1.55954516089 1.66729446646 1.71582891167 1.66168734624 1.53035727644 1.41047041379 1.38161791661 1.42689782311 1.42357188204 1.2611220021 0.98382243879 
1.14330470211 1.27742059723 1.48377456845 1.6642208517 1.7755826953 1.81097137007 1.76998456918 1.65622821089 1.4982012062 1.36238549576 1.3153828456 1.34333847549 1.329686473 1.16765900516 0.902326897549 
0.99398151612 1.18550543421 1.48567453361 1.74073572265 1.85636931216 1.82643606978 1.69938037308 1.52366058534 1.33182706004 1.16919694591 1.09308298377 1.10641105216 1.120270675 1.03847470996 0.876537749773 
0.910651802815 1.11877704509 1.41583126596 1.64579379966 1.70664191622 1.60606329959 1.42828238337 1.24691711574 1.08415785261 0.948878222237 0.867584830325 0.848047382892 0.848219281522 0.825429024846 0.795094699642 
0.865780328025 1.07994055906 1.31731105275 1.45414047336 1.42229140611 1.2575774577 1.062108213 0.912915706198 0.820169904852 0.763768893606 0.729155628613 0.698982372821 0.656860124146 0.626335290256 0.664376736261 
0.842151259143 1.03888902225 1.19445921977 1.23232288091 1.13970759993 0.976701028185 0.824981904782 0.724977424734 0.672873234298 0.657624716484 0.664933955048 0.659189615943 0.615652773879 0.577511269421 0.62521264473 

1.11429547577 0.996490418538 0.968718425514 1.06684532922 1.24202644288 1.38548577203 1.41990693525 1.36049557573 1.26843826477 1.16910509785 1.05353045639 0.940057922461 0.876305717331 0.872628260079 0.883970949368 
1.15899969886 0.964302238291 0.915242807904 1.04221259821 1.24634824492 1.37633932465 1.36396917153 1.26788577134 1.17617356406 1.10568796639 1.02547582591 0.937261594177 0.87734877073 0.855950974343 0.8514125991 
1.13767916948 0.876253894151 0.799959847964 0.936089391561 1.15187241365 1.26888324464 1.2263918391 1.11000800978 1.02646676078 0.999344265212 0.997788927812 1.0054591619 1.01626925822 1.0044142632 0.957801480629 
1.14769887922 0.85529273393 0.724570315149 0.793377129781 0.944988566442 1.02586541977 0.995008465998 0.929488879279 0.906083756476 0.932644285846 0.989175000915 1.06563859247 1.13280657767 1.13496516975 1.06022012893 
1.18121606426 0.922964969197 0.765709383041 0.745992303985 0.784937829967 0.792867160022 0.770662536517 0.776992696608 0.832024280893 0.906804240085 0.986295488642 1.07706288936 1.15093811395 1.14727401235 1.05873678611 
1.20395835595 1.00948593975 0.874077906068 0.819779329576 0.791508980829 0.751706236019 0.731973818241 0.76828804006 0.834842491183 0.885959589285 0.92754591415 0.991809480658 1.06027218474 1.07229708808 1.01246527551 
1.23118044459 1.11515837085 1.01992526217 0.961471941211 0.911283784923 0.871339895478 0.878642095863 0.928405540967 0.953729482281 0.913031601805 0.852965735355 0.84523194358 0.89312782881 0.942558930478 0.960719226331 
1.23377228386 1.23831459988 1.20410639741 1.14052209459 1.06063845015 1.01741208411 1.05274066984 1.11851832382 1.10968763431 0.989973369696 0.83878283944 0.756396240573 0.765049093596 0.824805851092 0.900363269568 
1.18480330743 1.30125208679 1.33246178752 1.27462226387 1.17739213884 1.13528927097 1.18752348921 1.25007387142 1.20047559712 1.02389925425 0.830677915392 0.731678807914 0.742016781636 0.811920508691 0.899084061222 
1.16476010146 1.29692378092 1.32938888775 1.2667031367 1.18857507327 1.19765299932 1.29552061292 1.35186888109 1.24185632014 0.994687145747 0.768472070124 0.691172366908 0.760950195396 0.889732190121 0.997339026622 
1.22855951607 1.30450665193 1.27753213748 1.18238023627 1.12672523358 1.20004428813 1.35103375322 1.40814648246 1.25575426085 0.965552546804 0.729995599733 0.684889908192 0.813769961692 0.997520140978 1.12209314573 
1.31358665964 1.33504335039 1.26741157353 1.16293611374 1.13252430664 1.2349023187 1.3803130844 1.39916357413 1.22123569688 0.957163689906 0.792074254541 0.820236538621 0.986123144701 1.15490264016 1.22227697758 
1.3881151583 1.36739555907 1.29379218722 1.22285405813 1.244140768 1.36836128951 1.47541084672 1.42589376238 1.21902435148 1.00619783801 0.945832726352 1.06290749149 1.24375739285 1.34321206708 1.29685728805 
1.46154212414 1.42801414376 1.36553575028 1.32894963619 1.39329366729 1.53888744288 1.63167089283 1.55753638574 1.35537176569 1.18666316292 1.17859694142 1.3101772579 1.44148409305 1.44089087225 1.29322842617 
1.44634435912 1.47081339981 1.47926764996 1.49388457011 1.57124700494 1.69521395673 1.76287497314 1.69738932725 1.54251270861 1.42254650418 1.41845581571 1.49086570312 1.5173550527 1.40740726569 1.19265167586 
1.27199553531 1.38448386085 1.52572576919 1.64772220781 1.75156037785 1.8219111765 1.81681273252 1.72494462127 1.59773211396 1.51001979618 1.49390878914 1.50655767019 1.46006458936 1.30201492545 1.08075947633 
1.0480255248 1.20130468074 1.43751848369 1.65458868975 1.78805789295 1.80673265246 1.72146316577 1.58635204039 1.46381009446 1.38547876019 1.34482921498 1.30923936081 1.23766345641 1.11405100286 0.975298900501 
0.908282010217 1.05988941762 1.29503261141 1.50741587295 1.60655727134 1.5580811248 1.41276435276 1.26818057335 1.18441551509 1.14657567279 1.10459210728 1.02774530877 0.924156900625 0.833800622176 0.80211032831 
0.859906008433 0.995501845256 1.16798493933 1.30028236501 1.31673114297 1.19722036538 1.01528371735 0.88413581625 0.855857266927 0.88620668919 0.890126778397 0.817517422357 0.691734657216 0.597187521017 0.612884861971 
0.878898006799 0.983417060336 1.0681994407 1.09931021127 1.04304235409 0.902260576519 0.742600177153 0.64709711195 0.646137391165 0.700710053898 0.739887031169 0.710281301796 0.617981713565 0.53863533098 0.556924567858 

1.05695182147 0.976335287597 0.972100221863 1.07274380024 1.22595395401 1.32236414492 1.28129772671 1.12593640949 0.958847396003 0.861964897316 0.839507941611 0.852400476036 0.868248317786 0.86324644706 0.815602673539 
1.09094177275 0.930944903209 0.905186985334 1.04063184253 1.23578447242 1.33188350946 1.24828354612 1.05152934313 0.879352583447 0.809675870204 0.821571046222 0.858190647742 0.881531952016 0.870345560921 0.817407079789 
1.10358058073 0.884547356017 0.827524454462 0.960871050697 1.15917526421 1.24046487274 1.1294975211 0.919240928948 0.765755785536 0.746529671697 0.83077308061 0.944513982596 1.02277827062 1.02496827883 0.956902466727 
1.17689176861 0.951095471701 0.842527900025 0.888167168634 0.992613875289 1.01489335716 0.910040366928 0.765340518376 0.698099919368 0.750305922932 0.884732234329 1.03474016214 1.13267764414 1.13428923162 1.0619944749 
1.26223220583 1.09588292693 0.97119477516 0.916384682409 0.881528744772 0.804895295984 0.698736144144 0.63820707555 0.673728400291 0.788656233848 0.934701632696 1.06429469127 1.12879333825 1.10165163363 1.02771327205 
1.3022651377 1.20679800349 1.11179638725 1.02563843554 0.919116810128 0.785050145391 0.675172146645 0.64829174289 0.703062172808 0.792498268386 0.882268808754 0.956293806013 0.987605113735 0.960816402738 0.92140940537 
1.32228478118 1.29391533376 1.24205456674 1.16824229836 1.05688867563 0.927743683869 0.837562212315 0.81197699734 0.812572941454 0.795367650299 0.767267618728 0.755379628315 0.756991152926 0.763253699219 0.802240351578 
1.32674835575 1.39911974599 1.40871471186 1.3525808675 1.23880443319 1.11621365102 1.03938511645 0.999988595204 0.936277817006 0.82087595 0.697601544319 0.618176804905 0.589792143797 0.60991334123 0.700110463481 
1.31781845693 1.48290520827 1.55124476415 1.51278356559 1.40094645607 1.28760640451 1.21462349494 1.14244902687 1.00709126827 0.818399596508 0.656825844743 0.576854698522 0.565486345953 0.602121108859 0.697405518987 
1.36090062679 1.53172690264 1.58609857956 1.53149538319 1.43523628745 1.37409554763 1.3453486054 1.25864103812 1.05112111239 0.785782493774 0.5952617508 0.546000263553 0.601063421581 0.699985730876 0.814225474251 
1.46145037719 1.57247109182 1.54884645077 1.43688869338 1.34505567358 1.34579865291 1.38053111092 1.30640463622 1.06228530069 0.755244535891 0.556543636902 0.541837865504 0.660409259114 0.821887604917 0.959503003157 
1.5386117163 1.5805788772 1.49181977644 1.34656651135 1.26900347312 1.30781928012 1.35976634498 1.26849411401 1.00690731557 0.721513881648 0.58542704056 0.644210892858 0.815699427171 0.989686456793 1.09119770547 
1.59253998283 1.56017989685 1.4300196019 1.29660572517 1.27235973149 1.3570852158 1.4053833611 1.2746257097 0.995339654083 0.753167135996 0.704670881266 0.845637448493 1.05207007661 1.19789783275 1.21891067008 
1.65903921506 1.57905537397 1.42332073287 1.30535039202 1.32982835934 1.46126186071 1.53052247588 1.41110241357 1.16388709139 0.974591394551 0.966777379483 1.10616349516 1.26553955495 1.3363374265 1.28062305955 
1.6398651393 1.59415203001 1.48563073078 1.40892612713 1.45230658832 1.57848029248 1.64765762863 1.57395495043 1.41916685687 1.312930215 1.31380695843 1.37257648986 1.40267869286 1.35338412555 1.2298161433 
1.44360713067 1.47495470335 1.49163597641 1.52177254471 1.59585723962 1.67443680009 1.68486911703 1.61882363069 1.54469422691 1.51884064589 1.52260841547 1.49707609917 1.4088306116 1.26884699131 1.11382200328 
1.17538781245 1.24730851624 1.36637920662 1.49875401131 1.60277371967 1.62395750065 1.55553917562 1.47039658813 1.44691811285 1.47514768937 1.47120184187 1.37707555369 1.21554029598 1.0522308254 0.935840295782 
0.988321400847 1.06027142919 1.19688082255 1.34296034531 1.41642886446 1.35904541226 1.21883916907 1.12822714599 1.1639910462 1.25615249798 1.26445417779 1.12671733012 0.909571791461 0.732648317297 0.669175574015 