# vtk DataFile Version 3.0
vtk output
ASCII
DATASET STRUCTURED_POINTS
DIMENSIONS 15 20 65
SPACING 1 1 1
ORIGIN 0 0 0
POINT_DATA 19500
SCALARS Image float 1
LOOKUP_TABLE default
1.0786933185511733 1.0748920688311578 1.0663867410374248 1.051596873456889 1.0290672134337076 0.9984672522850079 0.9613601324594944 0.9214632401108849 0.8842587244280832 0.8559965214010853 0.8423134655451705 0.846817513909502 0.8700183030940921 0.9089122254135026 0.9573695717262822 
1.048130104000651 1.0376828255498007 1.0263008214545644 1.0128675678478571 0.9960396905833467 0.9752105967901508 0.9512755765536237 0.9269259180653479 0.9063324776039384 0.8942587397010247 0.8948186388452171 0.9102142413553518 0.9398164913647864 0.9798777730324245 1.024006246383788 
1.0120060109874998 1.000052446068831 0.9910581077488843 0.9839145988187576 0.9769482572481106 0.9688930162503313 0.9596925327562662 0.9508598646508696 0.9452536421742329 0.9463057460728423 0.9569064784080106 0.9782690716622614 1.0091210204806946 1.0454952999876885 1.0812387158244274 
0.9780910074345316 0.9699325093352665 0.9680861233447262 0.9710605533965915 0.9765318346045042 0.9823586655812765 0.987446036125306 0.9921832618252352 0.9983120363795622 1.0082539796096925 1.0240953176579328 1.046539636657508 1.0741640479582697 1.1032406189771966 1.1282325650727718 
0.9537149650759728 0.9539667060246113 0.9628215704534838 0.9781399945577491 0.9967922488771469 1.015733224556238 1.0329334995452066 1.0478895569544742 1.0615654522890106 1.0757910821166394 1.0923087107581013 1.1117711567722846 1.1330189010232943 1.1528911502497479 1.1666768719461311 
0.9444002515188461 0.956289324231912 0.9777224612850608 1.0058062701891857 1.0366239879675896 1.066369522740017 1.0923349270885587 1.113471546425767 1.1303753183185308 1.1447194000977867 1.1583228875484017 1.1721550842269464 1.1855983000737949 1.1962210089027872 1.2001669524694119 
0.9527805393909337 0.9777058527427831 1.0117515143329707 1.0513266573262714 1.0918969531082872 1.1291630888297102 1.1600814561212478 1.18344645125874 1.1998853339467437 1.2112895642123418 1.2198714926319028 1.2271450098834649 1.233151754224098 1.2361839187345798 1.2331104564519184 
0.9780207675893133 1.0154335516460185 1.0604255378797656 1.1088979285978013 1.155968658826589 1.1971712372233572 1.2294802455488265 1.251884280084561 1.265360036524265 1.2722744880150634 1.275406363452129 1.2768867090173468 1.2773804235868205 1.2757601382881623 1.269380821171675 
1.0158736423202663 1.0634722700389885 1.1164402304767296 1.1704413192241307 1.2205499455284685 1.2624439710141662 1.2934089884781153 1.3128780706472656 1.322364953917642 1.3248218447886253 1.323616346011084 1.321429178305655 1.31939530249399 1.3167401719411862 1.3110206104283086 
1.0593932649654043 1.1135671843412702 1.1707866280335473 1.2267656371486404 1.2768061560460962 1.3169632579649162 1.34501118825492 1.3609383061769404 1.3668333277327402 1.3661980499179518 1.362883885540899 1.3599552495992144 1.3588025697242734 1.3587564131233816 1.3573126126975459 
1.1001966378055719 1.156613523988827 1.2141883800623041 1.2689285463128375 1.3165461975911132 1.3535847500237215 1.3783430281424471 1.391328628449601 1.395105916222034 1.3935761046802264 1.390887887204683 1.390281619334369 1.3931889706019225 1.3988386486364357 1.4044780725475001 
1.130045699634935 1.1842607556408127 1.2386242026881409 1.2895883225623062 1.3333377841829273 1.366879523177977 1.3889359998908044 1.4003743358622587 1.4040369437073714 1.4040104832643234 1.4045302984441512 1.4088215507337811 1.4181972023631602 1.4316623954406749 1.4461354903128454 
1.1424437522742785 1.19042156369065 1.2386722057991228 1.2841303833391784 1.3233918050828226 1.3537822564531645 1.3742434564398653 1.3857656495149304 1.3912288756449578 1.3946856730349508 1.4002784615445079 1.4110895884361712 1.4282421315507265 1.4505006447793032 1.474483871467752 
1.133922136585499 1.172394770981248 1.212432336891964 1.2513802637412272 1.2860849951658935 1.313968241612348 1.3339366306663554 1.3468498039924746 1.3554010838390997 1.363436066306818 1.3748964176446183 1.3926829708907327 1.4177548224368384 1.4487149184237702 1.481998171558422 
1.1047449797045974 1.1313757498225467 1.1618513840455729 1.193777405350919 1.2240382429041428 1.2499073827535054 1.2700131300407653 1.2848718113598219 1.2968310573933588 1.3094386481317828 1.3264172175017461 1.3505354924787285 1.3826930446600798 1.421472800426701 1.4632840960523588 
1.0588749408680953 1.0722439767177039 1.0923826692972092 1.1169746532945635 1.1427340222839582 1.1665801278303725 1.186686041927976 1.203097810723281 1.2177531883689996 1.2339043511609593 1.2551182484974783 1.2841434420265692 1.3219631419858309 1.367295228487154 1.41667139431681 
1.0031984549221091 1.002663191470838 1.0120403745309259 1.0289317667260285 1.0497314859931002 1.0708858180967893 1.0900395465365023 1.1067492540452715 1.1225775451292304 1.1405622169608047 1.164229064249649 1.1964378125747785 1.2383863752146087 1.289043265234404 1.3451514504805653 
0.9461708341831894 0.9316740675780543 0.930030088354759 0.9386672954773042 0.9536082481048751 0.9708217110387888 0.9874672619038422 1.0026961721401293 1.0178088275147121 1.0357542817397334 1.0601383385052632 1.0940331319387737 1.138921328462221 1.1940553993138057 1.256386805217941 
0.8961718344622202 0.8680691401734362 0.8552251080738262 0.854900522468608 0.8628085570535967 0.8745510448599997 0.8869467190899343 0.8989002742846384 0.9116015364202629 0.9280350698727258 0.951967465990185 0.986711330275244 1.0340085319954029 1.0933239030732018 1.161714417752722 
0.859928649169442 0.8188877285661458 0.7947902805102454 0.7848366875219255 0.7845952112382635 0.7895003003410634 0.7962375573262528 0.8036528566659216 0.8129677734375377 0.8272800509847944 0.8505201344951132 0.886170534017453 0.9361001320549948 0.9998137528056725 1.0742890421617264 

1.0885704986623606 1.080435036939664 1.0656662237394232 1.0431598633500414 1.0121970955033717 0.9733244881617009 0.9289615356579276 0.8834919195200871 0.842735926406091 0.8128807509843756 0.7991121037286115 0.8042958651594728 0.8280700612794978 0.866618720789622 0.9132320468495962 
1.0638669119908775 1.0489912588988384 1.0311377667518014 1.009595543206822 0.9836956803806182 0.9536720084645919 0.9212778231163523 0.8899171481191546 0.8641883893155681 0.8489145035399659 0.8478964182489217 0.8627274782498999 0.8920148381007238 0.9312635346889725 0.9735129396318325 
1.0304850483288273 1.014134187727397 0.9986525408059703 0.9832412329296465 0.9668147209419305 0.9488900313789742 0.9302554799074084 0.9131749731316955 0.9010224931897002 0.8974159218714532 0.9050795059880429 0.9247627301795448 0.9545497447094716 0.9898032477084937 1.0238228332568835 
0.9965573182977153 0.9843138120966625 0.9763085712010787 0.971231672318057 0.9672306781316206 0.9628644177081781 0.9578501375731616 0.953354637277105 0.9517189181608018 0.9556801675789701 0.9673141105843245 0.9870180991365772 1.012861144505747 1.040537642616054 1.0640002111959022 
0.9699910292443116 0.9669071307006692 0.9704151721177712 0.978394224219806 0.9880380633391475 0.9968928965509233 1.0036903827340853 1.0087199839170196 1.0136252308677678 1.0206837991606532 1.031790775051401 1.047461699792383 1.0661779383471846 1.084308508808697 1.0966835374005943 
0.9568999825390937 0.9667622577671859 0.984242885502758 1.0062724765405973 1.0290825145095508 1.0493283113612784 1.0649974175760315 1.0758416732802778 1.0832142521599233 1.0893702865830912 1.0964501525977688 1.1054620394417807 1.115586626912087 1.1240390629803272 1.126566170630532 
0.9603591886246974 0.985180488358567 1.0172806770835157 1.0526746975082033 1.0867833672131566 1.115626829480755 1.1367844125741975 1.1498553102843332 1.1563008362857163 1.1587285799146618 1.159840511960068 1.1613649512992275 1.1632984377532942 1.1636961016564087 1.1590926928695569 
0.9797453783739205 1.0195503759133582 1.0651581113518327 1.1118472026390622 1.154493265775899 1.1888071908804678 1.212315863364034 1.2248186511475423 1.228202538632533 1.2256806233666617 1.2206814389517753 1.2157143956464758 1.2115421813856115 1.206902995688319 1.1988690603503467 
1.010820043325867 1.0637333586094593 1.1202776644658543 1.1752723931146156 1.2233634384859107 1.2602765844388166 1.2837895642761343 1.2941574349095815 1.2938782874788166 1.2868699491179112 1.2772916505991334 1.268341973074775 1.26136887226939 1.2555385614712655 1.24815302907583 
1.0465644175028004 1.1091566506216368 1.1730717657304823 1.2329822017591165 1.2836018306593158 1.3209281634692853 1.343184313439625 1.351198233424218 1.3481110622295978 1.338491190096257 1.3270940717921813 1.3176043482637008 1.31170004077177 1.308688342657372 1.3058047799740158 
1.0786165022854244 1.1464236907901302 1.2136746645624408 1.2751787702859052 1.3259397908287942 1.3623700174537272 1.3831937141124875 1.3897802913956687 1.3858028500488393 1.3763030546787511 1.3664065505377958 1.3600288891456354 1.3589140597471552 1.3622565455479565 1.3669995915238258 
1.0990240938026168 1.1671367921609281 1.2337070238961882 1.2938855856667997 1.3430753495672392 1.3781135453818156 1.3981432843245312 1.4049157204173186 1.4024197368118658 1.395921507840893 1.3906594965253438 1.3905359095902534 1.3971473810005093 1.409406262586507 1.4238458250812875 
1.101947658563784 1.165568726020524 1.2278337884532813 1.284331216471341 1.330849799678775 1.3645395473867987 1.3847714108198137 1.3934351808568235 1.3945698682372938 1.3934065472698283 1.3950674033434665 1.4032608544131677 1.4193150849334142 1.4418017637072438 1.466844629767976 
1.0849449978290953 1.1398371457847807 1.1947862960598343 1.2458037000783166 1.2889467508967982 1.3214801419429818 1.3427532098330457 1.3545263733676094 1.3606340405845594 1.366057757216819 1.3756487140815323 1.3928368449075128 1.4186682741665848 1.4514242759508815 1.4869196097583608 
1.0495509924280166 1.0923293392689046 1.1376366835555265 1.181804663134418 1.2209783494498228 1.2523061556228563 1.2748672693574203 1.2900587428174306 1.3013185605784492 1.3132490685951255 1.3303734117484391 1.3558591943282203 1.3905515007903781 1.4325717803952704 1.4775861483864956 
1.0010156290484862 1.0292782185289808 1.0632597992750195 1.0994638291085514 1.1339313258393515 1.1634880580415174 1.1867507655046259 1.2045998945820782 1.2199809881272896 1.2370877870415327 1.2601526993981689 1.292176673345414 1.333942894259842 1.3835766731415504 1.4367634087479333 
0.9472497945350824 0.9595717451517192 0.9810853675941879 1.008321179675093 1.0370663145811077 1.0636912250584438 1.0862536573663226 1.105070149844904 1.1226014236467525 1.1426930389588563 1.1693908558569583 1.2056630250295148 1.2523776494259247 1.3078068520387902 1.367779569838722 
0.8972082536995519 0.8930464680546407 0.9013942456191137 0.918714200122596 0.9404722758655548 0.9625547942353281 0.9824755490253949 1.0000451472089948 1.0173333932026303 1.0379556319138485 1.065898507137046 1.1042190027560186 1.1539730137006834 1.2136543916694278 1.279278168197501 
0.8590696253571166 0.8386316116639919 0.8335118099751694 0.8400910139639415 0.8535487124570903 0.869367230153828 0.8846327124644222 0.8987881591485573 0.9136556363874412 0.932750619807245 0.9601025481621019 0.9989200426893613 1.0504658596063896 1.113433347480513 1.1839688432866182 
0.838621257300861 0.8027440446957512 0.7842736119807927 0.7795852901827455 0.7837031012186357 0.7918739713424303 0.800940797615205 0.81015532005763 0.8212374415576148 0.8376991879249174 0.8636487585540327 0.902419536602937 0.9553984807569051 1.021355548119566 1.0964269353349194 

1.076015108171036 1.0634667646091873 1.0430042664232653 1.0140288245527709 0.9765417834796569 0.9318909696307649 0.88321016714754 0.8353448464995638 0.7942016527294941 0.7656313842656484 0.7541055070754202 0.7615298279468777 0.7865289802602502 0.8244311389869636 0.868009956810509 
1.0577230825466064 1.0389723198129173 1.0158197529061694 0.9879518845792024 0.955325307311963 0.9189130589308685 0.881168590424023 0.8459994254678893 0.8181865671875173 0.8023566207946119 0.8017616262211207 0.8172023413592746 0.8464181688517285 0.8841612542612898 0.9230002585377577 
1.027766659947559 1.0080665973893193 0.9877206911648673 0.9662026942797924 0.9429433616732642 0.9181265761093066 0.8932216400478307 0.8710380041576095 0.8552333842132025 0.8493773187931699 0.8558196721494816 0.8746932481001779 0.903366164722295 0.9365538725318006 0.9671300073943345 
0.9945770651771753 0.979588508068067 0.9672839640721143 0.9564810162844705 0.9457164671496331 0.9341301732127002 0.922093088218474 0.9113569132124161 0.9046494989750983 0.9048130021532976 0.9137302775008902 0.9313650284631589 0.9552279260302099 0.9804758044498869 1.00068197953104 
0.9666722445694036 0.9616358357946801 0.9616348416141408 0.9645096978170387 0.9676987968947932 0.9692308274729053 0.9684564846265101 0.9662870535084983 0.9648575281053319 0.9667079034322671 0.9737270271972194 0.9861847861887152 1.0021658877124198 1.0176142095199985 1.0270289432764235 
0.9508773749879954 0.959873565959117 0.974941896573384 0.9927904329157093 1.0097375767903067 1.0228146456492258 1.0305903305394617 1.0334755778420064 1.0334220878906715 1.033107660904933 1.0348553435550414 1.0396164565613408 1.0463358732224552 1.0519140513235126 1.0518131153986294 
0.9508828273912803 0.9762891594087812 1.007424713298212 1.0398876940138897 1.069023510149324 1.0911219854482725 1.1043089850371448 1.1088844886863054 1.107018881006867 1.1019037134959815 1.0966100250067212 1.0929920177870336 1.0909625205234896 1.0883624703295727 1.081478989976343 
0.9664578280943816 1.0086717954775861 1.0551006717859983 1.1004130759317328 1.1392536048968789 1.1675065962293583 1.183221414651117 1.1869479864972416 1.18139615932165 1.1705212178373976 1.1582974639212227 1.147527521188682 1.1390232939452942 1.1313891250324695 1.1214686430367087 
0.9935087023230924 1.0509551881248842 1.1103622303866574 1.1657605591158209 1.2114286838743784 1.2431896112130445 1.2593362320903319 1.2609338930464022 1.2514180962421253 1.2355976557315036 1.218335277900892 1.203263635730391 1.191882214193896 1.1832729414530894 1.1745015041266387 
1.0249912194811182 1.0943860900513993 1.1633107547527366 1.2254988805866627 1.2751914321107785 1.3084348215518675 1.3239802207216704 1.3235345138856052 1.3112864014488324 1.2928262688346752 1.273741384292102 1.2582538562313368 1.2482544953083088 1.2429762745923405 1.2393776858032846 
1.052495763205005 1.1293001972213763 1.2036107086387378 1.2691886712399578 1.3204988119152477 1.3539860372531674 1.368935421086391 1.3676684460263484 1.3550040113759692 1.3371096192154301 1.3200318309736885 1.3082804754596364 1.3038253312558048 1.3057525581874514 1.310652763181392 
1.0681659585621583 1.1471449950085424 1.2225055270518592 1.2882902361228288 1.339339865893154 1.3725392277404806 1.387640169630546 1.3874160637522563 1.3770789801707923 1.3630887005156147 1.3516469441349506 1.3472553374685843 1.3516989798461136 1.3637047191992053 1.379346591454047 
1.0665251329829664 1.142320515800654 1.2145846270642173 1.2777890893101078 1.3271783953870986 1.3599903270171554 1.3762590645799593 1.378954159518847 1.3733853986918982 1.36600236281554 1.3628825460408904 1.3682876086441154 1.3836507823309994 1.4072455218317832 1.4346085653931344 
1.045794574497831 1.113434365919763 1.1789267651115394 1.2372050416949236 1.2838328980261409 1.31621753824937 1.3344211743568135 1.341318671798862 1.3420256184998314 1.342720857993872 1.3491542520108926 1.3652179117337315 1.3919440896102393 1.427181112629533 1.4660225825856166 
1.0083949045843348 1.0636858637159319 1.1193658795589336 1.170764366007595 1.2136029452405472 1.2452279535662816 1.265463758288942 1.276824504640358 1.2839981972577004 1.292718439199974 1.30830874075721 1.3342750321190944 1.371309949614318 1.4169630102880095 1.4660562639740289 
0.960505085860538 1.0002823301275305 1.0438087004878918 1.086682842728849 1.1245959201659659 1.1546127339329693 1.1760986015771364 1.1910152009141899 1.2034850296250554 1.2187282410794054 1.241649461668588 1.2754476450913925 1.3206142426551808 1.3745787994734489 1.4320886489814346 
0.9107711251898645 0.9330069512274833 0.9627393519904427 0.9956951067224081 1.0273715110580186 1.0543911660506622 1.0755262289488747 1.0920976361928283 1.1076322070069973 1.126868511482524 1.1543818082901276 1.193199748353857 1.24377793711344 1.303601987596904 1.3675122886265505 
0.8684568048488763 0.8722517866963171 0.8872276710875089 0.9091302238534702 0.9331671131076246 0.9554518112531097 0.9741366319870937 0.9899210272619658 1.005800557862166 1.0261348659536065 1.05529897349009 1.0962902798764687 1.1496664927149447 1.2130907921709813 1.2815915616512703 
0.8414626366401473 0.8269542821335646 0.8268712113605649 0.8369352170255798 0.8520602307031337 0.8678878499241065 0.8820264044849644 0.8946604473248068 0.9083795819671115 0.9272941361893515 0.9556982385861184 0.9966556457195614 1.050891628038697 1.1162780504229763 1.1880302314550049 
0.8346724970683943 0.8028991275569138 0.7881166605774415 0.7860607009020326 0.7914394261396882 0.7995498180909063 0.8076070165719649 0.8154363105022373 0.8253625959516285 0.8413566591850987 0.8676975972417211 0.9075316498537797 0.9617198197675161 1.0282720315035099 1.1024961715172752 

1.0425633574617623 1.0256721474376735 1.000213338898289 0.9661094857282755 0.9240520580436042 0.8761035904720946 0.8259663573663321 0.7787493639187387 0.7402115027896297 0.7156219849911869 0.7085113853222693 0.7196472622383872 0.74653637388744 0.783636183198771 0.823281929196583 
1.0303707897053722 1.0083384581930726 0.981097938764227 0.9487200950892346 0.9117305657314434 0.8717332223725742 0.8317202943049117 0.795896517985176 0.7689916628427181 0.7551995069532902 0.7570131154940676 0.7742855779830238 0.8038117420036319 0.8396058513227108 0.8738733612449179 
1.0038114184036857 0.9817617823265453 0.9581453715156262 0.9326749766121949 0.905224019264548 0.8765223062080474 0.8485517340029717 0.8244600739712915 0.8079601709290313 0.802347719423331 0.809403919464541 0.8285090772481303 0.8562594833710808 0.8867591881172419 0.9125822183016599 
0.9715285861179417 0.9550168339394319 0.940195247785175 0.9259660319957763 0.9111760532220456 0.8954238283283327 0.8795683398670708 0.8657455522343128 0.856851428621041 0.8556198687627117 0.863560146073163 0.8800801035291308 0.9020886221240533 0.9242507267035321 0.9398933249370082 
0.9426468876973926 0.9368670995799373 0.935084050981901 0.9350604191186395 0.9344076256445464 0.9315252880295205 0.9262306164211868 0.9198704912705605 0.9148670791135655 0.913822692862755 0.9184500316918145 0.9286584543525143 0.9420956719218091 0.9543246717947134 0.9596405597944361 
0.9247900465118416 0.9338557354473187 0.9479128375678436 0.9634250730815024 0.9767472648277267 0.9851984906175716 0.987799813518097 0.9854574067995177 0.9805363711951516 0.97595158354087 0.9740472791764805 0.9756047137007826 0.979287324713816 0.9817132620215664 0.9781693549160897 
0.9224239120303788 0.948822604702547 0.9798010973621499 1.0105490568636504 1.036319725093853 1.0536194329705229 1.0610256524538835 1.059405359529415 1.051476961601241 1.0408466236616996 1.0308001504907662 1.0232020374651636 1.017824079776663 1.0123054727110092 1.00276872469234 
0.93590200542048 0.9801894249266141 1.0274218817940566 1.071706678055137 1.1074849906197384 1.1308065575884587 1.1401909774741708 1.1368421306363656 1.1241607124107924 1.1066936974353054 1.0888142965616128 1.0734984818715565 1.0615347109154616 1.0513810812200508 1.03970364723116 
0.9614437359360619 1.0222010035398783 1.0834631805348491 1.138568667848511 1.1815081237212655 1.2082463100893095 1.2175885810499616 1.2113570408186114 1.1938262396171555 1.1705675277413334 1.1470094272572193 1.127095004539582 1.1123866316524185 1.101843313208238 1.0923116057483446 
0.9920674111544417 1.0661038760784987 1.1379658127602552 1.2005954108815284 1.2478960157633094 1.2760642020617572 1.2844302764847093 1.2755736594141527 1.2546696384181932 1.2282274964975166 1.2025407073566678 1.1822437588279155 1.1693377589871603 1.16291849714711 1.1596525640468172 
1.019278470554489 1.1020299378268519 1.1802908256061013 1.2469717518874641 1.2961891528103786 1.3245789566367432 1.3320929620881854 1.3220471354106207 1.3003848183909925 1.2743243660513877 1.2507229739708956 1.2345620467271523 1.2279250626613805 1.2297072347605669 1.2361045809970679 
1.0351309806546665 1.1211824279985123 1.2013159321014362 1.268708187247832 1.3178797396299893 1.3459751207220056 1.3535133215439978 1.3443800034212732 1.3250288383639037 1.3030678606162898 1.2855699903209061 1.2775202061847506 1.2807758716170219 1.293782575208078 1.3120933588820334 
1.034183293994536 1.117838026581256 1.1953902797760774 1.2604735756371785 1.308073316276726 1.3357739346773265 1.3444780094633453 1.3383684336260397 1.3240816395498238 1.3092696820230965 1.3008933205218107 1.303661877508524 1.3189990902039705 1.3447787182917614 1.3758775585850969 
1.014883818833829 1.0907062345770968 1.1616117481574528 1.2217599819402527 1.2665387304530265 1.2937933281690925 1.3045420333754116 1.3029442143675072 1.2954850618359623 1.2895515412801015 1.2917402923241228 1.3063132684381626 1.3341811912313122 1.3726595971400153 1.41604582372629 
0.9800502407039188 1.043323971628141 1.1041286423785568 1.1571092904424847 1.1979019239045237 1.22437097955634 1.2373560215111445 1.2406853304696344 1.240410635947393 1.243429848234249 1.2558333719211299 1.281387617862386 1.3205360838593272 1.3701647390252296 1.4241828721288843 
0.9363174728982869 0.9833807267635019 1.0313803184548536 1.0753290335904477 1.1109127820422406 1.135766747407401 1.1502890003452866 1.1577352462082438 1.1635348152237395 1.1739830900236687 1.1946383978534214 1.2288339910106076 1.2766865261858276 1.3348517439027114 1.3970841471457862 
0.8926762305143647 0.921117740804844 0.9544312226427507 0.9878481075083096 1.0169141968119817 1.0388332052555524 1.0533768057414747 1.063086816862786 1.0726920469101935 1.087880997146863 1.1137499875916563 1.153334876041917 1.2066105829022145 1.2702156537292577 1.337967165538355 
0.8584453555635883 0.8671641206663573 0.8847632810209096 0.9065594158965653 0.9278221265023882 0.9452058615328514 0.9577747331350129 0.9673253119048738 0.9779105405399188 0.9946913290734084 1.0224274853386164 1.06401529016049 1.1194609995649092 1.1855565112038762 1.2563332236010574 
0.8411615169629603 0.8303090825377488 0.8320205826955639 0.8416175546942928 0.854040398286134 0.8653775472991059 0.8740096182159005 0.8810520200565177 0.8899798013473627 0.9055475725956516 0.9323099267772803 0.9731509363253718 1.0282192390866771 1.0945457080047953 1.1664314493936982 
0.8448932492880187 0.81572730010894 0.8022140853657607 0.7996733326065402 0.8027534422024472 0.8070538984763401 0.8103798287114408 0.8132916110656315 0.818815530313996 0.8314166712340749 0.8555355067940749 0.8941001005004433 0.9474191431026084 1.0127441294479225 1.0845995927146737 

0.9928799543431958 0.9718379560188106 0.9421179933792632 0.9041709267131726 0.8593438717239286 0.8103314548459075 0.7612739433340894 0.7173737789042256 0.6840483344931149 0.6657895102869689 0.6650136712368983 0.6812223148174923 0.7107398479303313 0.747161063590543 0.7824618044197944 
0.9855274053916108 0.9607643940264458 0.9305376008945906 0.8952919088165142 0.8560707686919566 0.8150109431293078 0.775499972451249 0.7418600526770409 0.7185705214012164 0.709196138284723 0.7153025974363074 0.7356778079543806 0.7661227318611212 0.7999406786612449 0.8290740978062637 
0.9615592971512438 0.9379779012017612 0.9124555864085244 0.8849241230805279 0.855639475202974 0.8257716085760722 0.7976651008390235 0.7746216148024758 0.7602074668581367 0.7572484946182401 0.7667919446803915 0.7873542090669691 0.8147192617158225 0.8424177440281653 0.8628366382557937 
0.9297250590536442 0.9126246946813203 0.8967550164382732 0.8810830128438567 0.8647064893956234 0.8475781215559505 0.8308961348465561 0.8169971062484103 0.8087438731514879 0.8085662794603949 0.8174349810071779 0.8340910845808159 0.8548022009806218 0.8737810822313481 0.8842228244517567 
0.8997023158211902 0.8940315594245029 0.8918341571917963 0.8907867525874488 0.8886267631835219 0.8840315440630097 0.8771454384428894 0.8695739555653932 0.8638287206780215 0.862378860727799 0.8665932072830864 0.8759045487437706 0.88747712029914 0.8965244531359354 0.8972437061388748 
0.8799404875430537 0.8896172226098172 0.9036936491712417 0.9184040292712878 0.930115986311043 0.936364760832243 0.936502376260778 0.931766245555191 0.9247443133256944 0.9183940996808669 0.9149085631904711 0.9147730176325866 0.9163091481440871 0.9158677179642704 0.9086486638198151 
0.8757906299055086 0.9031809165210725 0.9344541685335577 0.9644402015590188 0.9883103841129647 1.0027472703816955 1.0066848553748768 1.0014126178341827 0.9900179137039633 0.9763301078691083 0.9636721220264197 0.9537803760975757 0.9462069275094359 0.9383816507526676 0.9263262168656519 
0.8883563410008587 0.9339713172485892 0.98166287789621 1.0250680013550901 1.0584773160161551 1.0781053311075255 1.082880693101905 1.0745426494958261 1.0570201067279417 1.0352666413760283 1.013873128222817 0.9958379540573201 0.9818274773944975 0.9701206884754926 0.9572415338616063 
0.9143424778990559 0.976776185315455 1.0385896271444566 1.092567594267691 1.1325142951991227 1.1545814729154422 1.158065815832781 1.145459342420681 1.1217347151268144 1.093051544994941 1.0652229006800118 1.04234133365807 1.025915114884596 1.0147228721681891 1.0053990494047667 
0.9469478378298686 1.023044167444493 1.0954975496176462 1.1566468455757764 1.2002103225929266 1.2226292375054644 1.2238361029431903 1.207232454067974 1.1788659488295532 1.146006456176349 1.1154774472905815 1.0921597457931815 1.0780338712401438 1.071980288391943 1.0703555036566312 
0.977598807515361 1.0628077283369795 1.1416459707404796 1.206408753672225 1.2510668695823206 1.272591359193782 1.2716696397795477 1.2526010783438126 1.2223700416084875 1.189108442872228 1.160318757450344 1.1412890585076823 1.1340782165408414 1.137298065544786 1.1467126753731838 
0.99811424023346 1.086978896083857 1.1676011915442812 1.2325684848524312 1.2763292723932789 1.2964784667399836 1.2944157050962952 1.2751678322142723 1.2463799454898261 1.216696151093777 1.1939115923482628 1.183337486196765 1.1867651794430099 1.2022601397954469 1.224805750535586 
1.0027802001060369 1.089488024220363 1.1673400863971817 1.229440792555865 1.270802365484245 1.2895870429520198 1.2877198081433578 1.2706638109773882 1.2463654348152724 1.223594504971852 1.2100667484728271 1.2107957981068558 1.227064927469118 1.2562510982656094 1.2925198285866601 
0.9898273514526201 1.0687590969295968 1.139659825172939 1.1962457782840508 1.2340424024849612 1.25159616167049 1.251069109853048 1.2380054691133193 1.220274562568492 1.2064143439205617 1.2037629566925723 1.216826992193011 1.2462781017800841 1.288811146007885 1.3378815302988336 
0.9619435467405443 1.028162167340814 1.0885533342657812 1.1374172510811777 1.1706339919816662 1.1868704834377655 1.188194093996318 1.179874097237824 1.1693669895770502 1.1647030635043971 1.172657363823947 1.197151961820044 1.2382813532732007 1.292195214135018 1.3518572567512113 
0.9256876725874728 0.975322119721056 1.022443639239242 1.061816158850211 1.0894542508890792 1.103857920019671 1.1066852108341714 1.1026305353896468 1.0984908458550622 1.10162543387966 1.1181847655125392 1.1515518897053696 1.2013885371921331 1.2635229630498193 1.3307023209322506 
0.8899415289000865 0.9204366910530574 0.9524369553334305 0.9810022541958915 1.0020538116537585 1.0136696902929716 1.0168522150485697 1.0155169636602817 1.015667153772859 1.023944221433624 1.0459204388892447 1.0845735654588673 1.1393373783319447 1.2059705687771436 1.2772741262448848 
0.8637770899082461 0.8739984895504177 0.889989679644205 0.9069400922492213 0.9204914374877642 0.9281209066257304 0.9300292452852165 0.9292615840410516 0.9310037204678412 0.9412280150001775 0.9650449558801912 1.0051979777435338 1.0610993188175504 1.1286576504506804 1.2009378353203917 
0.8542657401136641 0.8444646041036472 0.8445291285611056 0.8496545586119976 0.8550935409277479 0.8576431025499105 0.8566657838300747 0.8543491206665702 0.8551240238862016 0.8643996466858366 0.886962122021773 0.9254742973641272 0.9794805808880152 1.045178235940703 1.1160075871684871 
0.8647748248840861 0.8364341743807459 0.8215836086299971 0.8153690883203086 0.8126353523628964 0.8095198057076023 0.8046050708555731 0.7993106372570193 0.7974227251064279 0.803904835179747 0.8233296808513966 0.8583713585250011 0.908770170070781 0.9710433892357795 1.039006980738844 

0.934227303849162 0.9093446611119138 0.8760846921401573 0.8354261801214684 0.7893390398323603 0.7410817382649328 0.6951315108688365 0.65665892961873 0.6306037688414527 0.6205503978529883 0.6276937064361462 0.6501994097242113 0.6831867242781091 0.7194139208056426 0.7505666584096371 
0.9296002931284758 0.9025804648421629 0.8702717267485234 0.8334888465660731 0.7937553506570005 0.7536662349693009 0.7168953735429107 0.6877480323540388 0.6703076814460278 0.6673714010173154 0.6794640510626149 0.7042359108734296 0.7364728486661534 0.7687997429617561 0.7929760745801346 
0.9067293402082508 0.8821890732630415 0.855774868558833 0.8276359834387259 0.7983743840953437 0.7695243991020037 0.7436803739945695 0.7241568342706679 0.7142194526879786 0.7160759616314948 0.7299171077799427 0.7533157884461164 0.7812185133135714 0.8066150966841754 0.8217898949364194 
0.8743512947361992 0.8572265392554962 0.841319373629361 0.8256706609086161 0.8096011859652393 0.7933470985629854 0.7783336685191333 0.7669531359185724 0.7618730247020052 0.7650597624987777 0.7768102383011279 0.795106884027957 0.8155404369009933 0.8318967533614331 0.8373204587061269 
0.8425881760067837 0.8374348519755355 0.8356802519348929 0.8349433601415367 0.8330762240249825 0.8289751257749718 0.8230051233265974 0.8168845486147791 0.8130451331385173 0.8136510962378556 0.8195763941026426 0.8296679737755924 0.8405542494087447 0.8471103668496102 0.8435064304971498 