# vtk DataFile Version 3.0
vtk output
ASCII
DATASET STRUCTURED_POINTS
DIMENSIONS 15 20 65
SPACING 1 1 1
ORIGIN 0 0 0
POINT_DATA 19500
SCALARS Image float 1
LOOKUP_TABLE default
0.8286036457058484 0.7771664686810118 0.716562227196684 0.6605624463767911 0.6256641084555119 0.6244438372121204 0.659774882057446 0.7225483124127325 0.7940567867875992 0.8521891930569024 0.87897611758343 0.8665294425570231 0.8192002811680239 0.7514135164435387 0.6823489927640418 
0.8461754832362132 0.7937681799518501 0.7268626661075157 0.6600849144897861 0.6121588623341285 0.5984707013652282 0.624452234156707 0.6827621222132214 0.7555312517114717 0.8206867111749808 0.8596473725834406 0.8632591989604876 0.8338189531703977 0.7828607113101949 0.7261401275135502 
0.8858385298895729 0.8324138336769661 0.7600213210701849 0.6838731836977028 0.6238042254192144 0.5965782211600651 0.6091614104360826 0.6559476122752703 0.7210379792280956 0.7843697803506164 0.8288761869038398 0.8456629289532231 0.8353894525552347 0.80594054293166 0.7680841734210956 
0.9488537153938463 0.8953127976693718 0.8193280437060931 0.7362447338896114 0.6658084320012532 0.6247572573515585 0.6206415257580906 0.6495622429732928 0.6985645381855732 0.7512403901518627 0.7937743867217224 0.8187954876473549 0.8257916446004168 0.8186832391243988 0.8024466423516938 
1.0246788143801087 0.9721015028297402 0.8951067555012062 0.8086364581493859 0.7312169524880805 0.6783124321661779 0.6571918361181397 0.6654849264953464 0.6936867130735559 0.7299686285629586 0.7647422083472053 0.7928992517345871 0.8131660903531244 0.8256676592263127 0.829676464213023 
1.0950234008023434 1.043875325230115 0.9684120797983372 0.882706997639507 0.803205904880282 0.7431699383335028 0.7088653450670124 0.6990453541360173 0.7075020784274832 0.7269461644952333 0.7519998659714584 0.7798662096346151 0.8087692829995181 0.8356475871231813 0.8550234401234076 
1.1409764634643262 1.0907138120909905 1.018557289799235 0.9374676494838322 0.8614047458950849 0.8009817685956535 0.7609874974869032 0.7407002422324203 0.7363875486815614 0.7442745035501355 0.7621772638788957 0.7889608030121431 0.8224203966676543 0.8572604370640211 0.8849078676797713 
1.1500563752084787 1.099324744555705 1.0310873924319204 0.9572581285301734 0.8894709866224074 0.8358356988239144 0.7995358462055309 0.7797017201024415 0.7737473279464528 0.7796109456127387 0.7965060320729902 0.823781174099034 0.8587370307690108 0.895025129416554 0.923075199446341 
1.1203259581809997 1.0676310551962458 1.0028480169503293 0.9372149559360694 0.8807504717835243 0.8397837182059977 0.8161505997531385 0.808224311067931 0.8129937194429296 0.8278974936957906 0.851355569231107 0.8817897795058338 0.9159138825958231 0.9476255643332795 0.9686020586996352 
1.0602484629366373 1.0047298027894522 0.9423389676386663 0.8842235391410442 0.8398988361050002 0.8150653050805564 0.8107880796851767 0.8242304506712701 0.850417060214278 0.8840741334217197 0.9206825226747251 0.9564309302295411 0.9874575878534115 1.0092164022926084 1.016733361693578 
0.9849074119407497 0.9268033584600573 0.8657557335267715 0.8134767627665076 0.7802471463762539 0.7724582074998227 0.7911327069392013 0.8319386526805588 0.8866411995161202 0.9453950886973747 0.9990220848964919 1.040554080848135 1.0657581664139868 1.0728525190618174 1.0619174900712451 
0.9106237450888885 0.8512013215972845 0.7909172505269524 0.7426243532683262 0.718517880646524 0.7268623828907521 0.7692975359726492 0.8398216064213442 0.9260081134254099 1.0121697653431565 1.0834204470874127 1.1292491607883568 1.1454578995068485 1.1340087058551493 1.1011514541502434 
0.8502839530409059 0.7913188758782616 0.7318446408061441 0.6862335304262837 0.6693878514277161 0.6922258427628664 0.7573971654256865 0.857093690760711 0.9741749377478461 1.086538463382581 1.1733050174463486 1.220587607348712 1.224755527397473 1.192135569046264 1.135549454985708 
0.8108739779502868 0.7540302066958107 0.6959577223886881 0.6526568779357884 0.6420225203823953 0.6778480282076365 0.7638154023272941 0.8901799711349253 1.0349925133051665 1.1698760751942459 1.2684054774740219 1.3139454683424687 1.303965570356205 1.2493138558201635 1.1690382597317455 
0.7933774964169664 0.7398964829937098 0.6842550739296198 0.6438831582015672 0.6393968891025879 0.6871044019688329 0.7913910103406834 0.9404944246336929 1.1080132647924243 1.2601158025643828 1.3659068453982688 1.4069481244038278 1.3822189650831826 1.3067365027092515 1.2047453113848823 
0.7941189826324194 0.7450404870108563 0.6933593486918046 0.65741278359469 0.6597454693253451 0.7183311745192118 0.8377019329441965 1.0041485369790533 1.1876555145511494 1.350370509366812 1.4584968434056793 1.492911840593163 1.4543146270869058 1.3610741015812102 1.2410817371282599 
0.8063449422430916 0.7631383956498724 0.7177114094676731 0.688460528366145 0.6986362661340787 0.766700691798059 0.896717943218654 1.0733627573465416 1.2643255145527927 1.4296763632540461 1.5346219311082028 1.560525323220021 1.5098058795991387 1.4030351340313423 1.269926078508344 
0.8213584323502703 0.7865372375072516 0.7506983708771234 0.7311498351011401 0.7503213202053247 0.8258328375722904 0.9607538524137622 1.1387799592736623 1.3270276685489393 1.4857655438942665 1.581255668090523 1.596462806622639 1.5353599742928066 1.419435173264959 1.2784068644270574 
0.8293846756750394 0.8065913503676312 0.7846747388080546 0.7784884676362045 0.8079647674332278 0.8885538246777491 1.02196542944967 1.1917956685767852 1.3665096155537777 1.5089146349461149 1.5882911196450062 1.5901568429991684 1.519766523590676 1.398309862724164 1.2539757830842684 
0.8209022950088697 0.814165665379789 0.8108864009387475 0.8220418605926684 0.8634274989032458 0.9471277790975321 1.0732838565942076 1.2263425385466593 1.377937942721114 1.4954754711801461 1.5528503721056384 1.538795039379515 1.4595163417456696 1.3349355677397725 1.1906647662803975 

0.7961204749939355 0.73014361824316 0.6578916470615281 0.5989054051972102 0.5719958846183775 0.5880413629364629 0.6453313263135351 0.729481325904631 0.818024799379071 0.8878387527256699 0.9224619227196783 0.9165730831513517 0.8762450768353874 0.8153969420827338 0.750295794325212 
0.8049589579729495 0.7374691595471871 0.6590096702929717 0.5900485261500394 0.5513983527315933 0.5563040296396187 0.6051501559449721 0.6850418344342761 0.774365831832696 0.8503081686882288 0.8961756892239964 0.90570851952097 0.8831188293428521 0.8395329499515016 0.7879106587857576 
0.8369152836603593 0.7688907046967574 0.6862252552454322 0.6094742674189001 0.5599491745151273 0.5517627453966314 0.5866115666308889 0.6534608702407176 0.7330433323483745 0.8049801678058166 0.8543741704686356 0.8752929184449582 0.8702649488961582 0.8468262496382979 0.8133191352096241 
0.8929912753711259 0.8263008617876304 0.742437417238773 0.6610759841130784 0.602517832991276 0.5803368216223771 0.5968481366971643 0.6432085910750465 0.7037423510798017 0.7622044251899223 0.8070552534792803 0.8336553620966849 0.8430647577283874 0.8388604108602999 0.8241672356947253 
0.9620102164345737 0.8984276631359457 0.8167427175386612 0.7348290991198831 0.6706631863781777 0.636098802481396 0.6334533451355434 0.6561792187193255 0.6928631390259803 0.7322848336554726 0.7670251130566346 0.7941889699522445 0.8135462239677802 0.8248057525920396 0.8260608928757709 
1.0252722247654902 0.9655978891711198 0.8889694299644795 0.8107879865221126 0.7458057880039055 0.7033581682052779 0.6852601468372714 0.687040107969579 0.7014575480496992 0.7221914156286827 0.7457364513581453 0.7707756173141066 0.7958796669958664 0.8174056800563709 0.8293349199746741 
1.0638861289390291 1.0076319828890412 0.9377527462867412 0.8669193308009104 0.8063542534338088 0.7625965239203517 0.7366390104613423 0.7255637980221163 0.725458345624742 0.7337841005058104 0.7498272026829378 0.7731197070507438 0.8010498192853026 0.82749599050163 0.8438271841323584 
1.0655774518500187 1.0113435596778226 0.948509845671403 0.8872418459132156 0.8355924253652185 0.7976082282157819 0.7733918672468032 0.7608619470396651 0.7580112195418169 0.7642187661986475 0.7797867647466473 0.8040136561606961 0.8331285194429296 0.8596815555271136 0.8742940520361548 
1.0283883278951167 0.9746813238049256 0.9180952055137473 0.8669509445861596 0.8270883318981872 0.8008879598128189 0.787754230903352 0.7856619306294289 0.7927825273932715 0.8081779965125668 0.8311315034926758 0.8595696320381294 0.8887106326882916 0.9111179105169777 0.9186543572993611 
0.9603355501979595 0.9063523291888753 0.8547188028523225 0.8128663320132633 0.7857746674395183 0.7753219218871188 0.7805879933848356 0.7988568190369438 0.8267285309302767 0.8607453188798116 0.8972856712602226 0.9320045694244525 0.9594810901598868 0.9737208389063422 0.9697046807238431 
0.875885299018882 0.8218290244201217 0.773914256361052 0.7397428063214185 0.7249046108918021 0.7320066383750486 0.7602081769640086 0.8054242763048279 0.8611307165421511 0.9195092740209964 0.9726192720967588 1.013385879098792 1.0363705359145106 1.0384038739978265 1.019132192671305 
0.7911895442912011 0.7379731373901353 0.6928727327532003 0.6646418982948502 0.6607824920862144 0.6856492325287062 0.7387436115402037 0.8139952511284323 0.9005394713806583 0.9849284574475065 1.0541360459589924 1.0984062470808087 1.113085529688806 1.099003626627914 1.0615134165728908 
0.7200227429870049 0.6685855658250295 0.6256755738158146 0.6019567920806573 0.6077500849099242 0.6497509203777004 0.7278021353110706 0.8332880391133914 0.9502041951640101 1.0588677402802342 1.1410803636081097 1.184894364730041 1.187278175992676 1.1538580366129472 1.0961095702598536 
0.6714751928188483 0.622181389020442 0.5809506366070538 0.5607976475997876 0.5752453019864019 0.6334016599259178 0.7351639887478537 0.8689098135953133 1.0131693359436742 1.142094101879489 1.232834118446335 1.2720310221452042 1.2589710646636278 1.2043651119194205 1.1255646079401742 
0.6493366175508544 0.6018945256384546 0.5619438144645313 0.5449116724828735 0.5673512525718434 0.6403650794857805 0.7634198172374487 0.9216249429652759 1.0882498786433008 1.231992759005309 1.326356534310122 1.3574753068322847 1.3273632179457846 1.2515388354291987 1.1523770427395374 
0.6524025498514682 0.6064478322852043 0.5678289372869204 0.5540302207580845 0.5839534823194343 0.6699127760243313 0.8104231275772944 0.9873977124359099 1.1696256143077908 1.3216455132386002 1.4146658947267468 1.435196917671478 1.3880337934756528 1.2927054185993212 1.1753038717281952 
0.674973970463304 0.631049951294427 0.5948634411405043 0.5851661792282006 0.6221082540888697 0.7182327247974898 0.8707165503774046 1.058784762827523 1.2480968548246683 1.4008041335277224 1.4873798624268664 1.4954777962991683 1.4323838756776437 1.320458247766634 1.1879711871135896 
0.7074199000408509 0.667793910776483 0.6367177639840533 0.6330105132113295 0.6766704921892052 0.7794430524751633 0.9370287128328678 1.1269197071807502 1.3134629916259917 1.458499160794885 1.5333725342528568 1.5274693920283946 1.4500099867962362 1.3248236140245349 1.1808341700169838 
0.7373058778146347 0.7060565447633329 0.6843936552685463 0.6896896998589634 0.740236499210952 0.8460295388825152 1.0014213372646168 1.183457735343019 1.3572306732038877 1.48639394691975 1.5446255252941354 1.5234041470999795 1.4331671035745688 1.29787815382996 1.1458280250775075 
0.751726213043899 0.7338502766772044 0.7268362899610152 0.7449715689719755 0.8033093002533422 0.9092999943133235 1.0562717217975874 1.2222123967785996 1.374931434255134 1.4817473862914614 1.519778115917873 1.482676186248984 1.3813189436686515 1.2386762546438121 1.081515718528896 

0.7393247462651149 0.6623698847764987 0.5843290997570494 0.5290985040918801 0.5159350012542021 0.5523766040407092 0.6313292740527341 0.7334772547826421 0.8339559769644073 0.9105182273340797 0.9499795372110335 0.9506902401711458 0.9206332975436567 0.8725899152907246 0.8188178931885165 
0.7385221088455112 0.6608340994974777 0.5785593553895109 0.5162936234373879 0.49467527040304854 0.5227744804345911 0.5948237120719966 0.6925451682449819 0.7919089374217806 0.871341722353157 0.9180158887401881 0.9299867408954975 0.9139824104419921 0.8805626781828201 0.8392584226591564 
0.7611076940936946 0.6848149040725868 0.6015276457094041 0.5352240328030651 0.5061842543271502 0.5235815086300724 0.5824855707629104 0.6663612717384271 0.753686362941085 0.825606857354708 0.8713702961324212 0.8896239696361097 0.8857813585497593 0.8674533207156078 0.8405494369715858 
0.8078770048804764 0.7355634780832296 0.6549852524312361 0.5881595411037508 0.5533809366441773 0.5586840570945957 0.5996188701491507 0.6620397159911675 0.728295438387223 0.7837927436067331 0.8210406804360352 0.839813581847044 0.8441330931951838 0.8382749683591207 0.8242073366626997 
0.867929410589571 0.8015470188384209 0.7271081805756978 0.6635257706208366 0.6258161896737142 0.6199451882939107 0.6416782610662158 0.6796414475372234 0.7207923223838976 0.7555035006914379 0.7799392904145312 0.7950409767997539 0.8033082541145318 0.8056571857861967 0.8003834977827817 
0.9234847623683528 0.863577642074251 0.7976102985523749 0.7406693026081335 0.7037462422767342 0.6902428330221457 0.6959661625440094 0.7123195060645955 0.7308162022443686 0.7465147539149875 0.7587483630968508 0.769147154426333 0.7785118994482088 0.7847209649743426 0.7831869240484358 
0.9568419820767704 0.9024760952039291 0.8457776484912539 0.7978544606324263 0.7656094479220632 0.7499035502970939 0.7465284054708242 0.7492950082785729 0.7534524588132018 0.757556047279317 0.7628640011473848 0.7708252131463871 0.7803886103816228 0.7870367393725464 0.784483273558111 
0.9565004353959802 0.9058913165181942 0.8578383802290909 0.8199161514818076 0.7955688242660063 0.7836548105277088 0.7800270007524062 0.780243986096222 0.7818856890817887 0.7851746611690258 0.791591548358469 0.8013887880457259 0.8116570352168565 0.8164140052867123 0.8090996782376008 
0.9202942765523938 0.8717502438542328 0.8308526960951648 0.8025898280970677 0.7881401315007814 0.7852969833600625 0.7901542727142986 0.7991789772150089 0.8105575953078719 0.8240820815532616 0.8396785291784633 0.8555345043654271 0.8671499542284349 0.8682515746280761 0.8535074957933056 
0.8549842355806665 0.8076320977303422 0.7722065828027499 0.7523713865849878 0.7485511237530635 0.7585959994619543 0.7790321431872623 0.806307156966881 0.8374370566353183 0.8697863046889768 0.9002348245205756 0.9244282188966206 0.9368909567957475 0.9323930804369795 0.9082450823964137 
0.7732542413991526 0.7271662602218661 0.6957912432817339 0.6828242681274286 0.689471450958669 0.714684059774925 0.7554943382852637 0.8073672902450587 0.8645298526671732 0.9203067838978806 0.9675722141944066 0.9994682680859107 1.0104830974103067 0.9977940833842055 0.9625253095907488 
0.6897976022783503 0.6455030959799029 0.6170950861206792 0.6095474772793095 0.6261335457553958 0.6676357386196223 0.7314346104614446 0.8110483601392339 0.8965967592181293 0.9763003879788935 1.0386948724646217 1.0749502169718883 1.0806526581623959 1.0566095101484718 1.0085546395895295 
0.617970134374884 0.5757066762648073 0.5493191495664271 0.5460449879049127 0.5720664907893932 0.6302676543868304 0.7179440903080769 0.8257552156677684 0.9387889375744909 1.039699312770608 1.1129358361541615 1.148575387782486 1.1444306694769155 1.105840947426488 1.0434833254102795 
0.5676726132335391 0.5268995873059628 0.5015338420196311 0.5016949309056062 0.5367821885059467 0.611570594732244 0.7226213715464339 0.856976313178503 0.9942337466241248 1.1116046354541176 1.1901612215095245 1.2199052301612887 1.2017826012927293 1.1461032213703801 1.068336041042201 
0.5442998482883975 0.5038612739182685 0.47857616479427734 0.48163264046179616 0.5254268033874756 0.6160279087726189 0.7485512232613376 0.9059622059355094 1.0624471950981116 1.1904318876823705 1.2686172258914594 1.2878804074711188 1.2528157113528458 1.1786115888013853 1.084946784437619 
0.5482472816821702 0.5071987197391472 0.4816086514226371 0.4874474867565226 0.5394322004469304 0.6441112737459658 0.794581641381825 0.9697291496158389 1.1389892488226718 1.27112198059604 1.3436072628717857 1.3489242272995237 1.2953535116962203 1.2023648058293568 1.0929561279263365 
0.5747070467571878 0.5334137853319337 0.5083822563924956 0.5175949786441552 0.5770676849196075 0.6929783427020969 0.8561528499047676 1.0419531524716692 1.216299048593858 1.3457623395678038 1.4077610451577567 1.3967882175823532 1.3243792000474188 1.213290613372406 1.088803387556861 
0.6140151027007583 0.5749125650434532 0.5530481733444876 0.5672018119208626 0.633447278016493 0.7568585183737239 0.9261557246356751 1.1142875716735332 1.2853621119374992 1.405443443488522 1.4529297915221953 1.424393870048484 1.333806596825931 1.2059806523192855 1.0674628607841503 
0.6531404048486367 0.6206525050414113 0.6062236047887702 0.6278873164972729 0.7004577117600265 0.8273806438904415 0.9958388586549709 1.177896148150485 1.3378053553171476 1.4427942861007528 1.4730422632356415 1.4269306460335325 1.3197868980059668 1.177188135307287 1.0260831583301224 
0.6786821513269397 0.658178785635959 0.6562969192514754 0.6886541563694355 0.7675667077693741 0.8945737447888158 1.0561713125783325 1.225232991156895 1.3680639165999906 1.454469296703056 1.46685408977858 1.404840168644047 1.2839200507038975 1.129245539933683 0.9675406734094767 

0.6635423567073404 0.5781798406587977 0.4993471596852973 0.45340846062986284 0.45804334339809716 0.5160128413046619 0.6144785198780426 0.7299835261982035 0.836862946723751 0.9155531049715909 0.9575671265516588 0.9655916945193496 0.9493941044791743 0.9199540904498696 0.8846974667335276 
0.6524806007890006 0.5683146323126687 0.48882683386941406 0.44057279344228994 0.44166396983038625 0.49526616672719764 0.588898530370755 0.6995988062439674 0.8025213104128991 0.8792187635537717 0.9222914649898308 0.9349819788185834 0.9266807805202046 0.9070318182327644 0.8816171141249012 
0.6656797166932715 0.5859678435079865 0.5100773284699454 0.4631141442204493 0.46183071485667126 0.5085781270168319 0.5910715033586413 0.6877907433910743 0.7763786447433116 0.8412594369508838 0.8773685271253349 0.8889490463398569 0.8847578571552143 0.8725520586744338 0.8557048823282632 
0.7038853190719039 0.6316588225568083 0.5633072426486581 0.5209536619635962 0.5184584805971728 0.5564433422669275 0.6228520747534478 0.6985015794046066 0.7648493567168901 0.8103952216510614 0.8330788294535423 0.8381828873816853 0.8334720225525045 0.8244682389668934 0.8123509835598671 
0.7570340820333115 0.69403654311132 0.6360416037967533 0.6010131598674734 0.5988600739862351 0.6279580303566517 0.6766356667924849 0.7286756079747843 0.7700516943372561 0.7937340385732639 0.800588811809475 0.796509060186126 0.7878122754905027 0.7776485333313705 0.7653547639290436 
0.8088711917575964 0.755017852535665 0.7084934307740864 0.682491905997791 0.6825532740706703 0.7047554617116683 0.7380426357630532 0.7694009224876357 0.7892656635929491 0.7945863192622465 0.7883354642682052 0.7761813068254121 0.7625065894150459 0.7481705062692534 0.7312764758150027 
0.8431909666385928 0.796807571430005 0.7610993008599061 0.7445515061161069 0.7486289450857597 0.7675327405958696 0.791095545882492 0.8093321228250387 0.8163692133795214 0.8118857448777647 0.7995878316697672 0.7838705272452852 0.7667886947796204 0.7472271135973806 0.7228330830159851 
0.8491179730658031 0.8077970918670268 0.7809551689822629 0.7730760877688776 0.7824901459364554 0.8023365549035756 0.8236110430630094 0.8388242807780644 0.8444883606116919 0.8412872366351565 0.8320587581189224 0.8189404638206923 0.8015212846937176 0.777284386895056 0.7442799103876622 
0.8237483752034331 0.7853487107687731 0.7648968449664317 0.7640808485235586 0.7794927073789666 0.8042479511648538 0.8307112249252436 0.8530846293142631 0.8686703953809433 0.8773109331080018 0.8795087576080873 0.8745031127294877 0.8596726181656102 0.8319282533430549 0.7905812408689281 
0.7718694208116532 0.7351437863149839 0.7187838050002031 0.723162869847739 0.7447096863410136 0.7775439860227793 0.8154367828673725 0.8532862719502108 0.8875420854130269 0.915560184994506 0.9344777013616699 0.9405347938935411 0.9296088414709558 0.8990787986928285 0.8502943116760708 
0.7036331089869428 0.668215522873013 0.6541915430108136 0.6621367150324118 0.6897764221438547 0.7330120819944358 0.7867893814044599 0.845581691024371 0.9034855813275047 0.9541532196942407 0.9909319641078748 1.0075578025448495 0.9995169452532088 0.9658043367247712 0.9104284406232299 
0.6315064064921657 0.5973739655008933 0.5844508874117134 0.5948596950899465 0.628723517269183 0.6840716167108731 0.7564667768401846 0.8387766164441558 0.92151417271807 0.9939419500338899 1.0458111039297597 1.0693486567304908 1.0610001946873981 1.0224852157872384 0.9608734117688558 
0.5675411408324745 0.5343730630918928 0.5216212186370045 0.5339767135598664 0.5745551446619227 0.6433570254047507 0.7357070024958049 0.8417187420177112 0.9474442570225645 1.037601311433334 1.0990378586183132 1.123756286996958 1.1105231400049915 1.0646922227121125 0.9965490212207849 
0.5213717183784334 0.4882835409644177 0.4749634092501361 0.48927466608503306 0.5373765996573536 0.6206370094804468 0.7331183467277133 0.861201119536812 0.9860144431116639 1.0880408828180863 1.1522229754747089 1.1716479268188125 1.1485351864506155 1.092451033357443 1.0168167601862867 
0.4988390722575889 0.4647429993138793 0.4504907637961496 0.4672530225309106 0.5237981948485857 0.6219718178729782 0.7535903793307661 0.9006610113975115 1.0393973292599523 1.1467265790291303 1.2067761876936414 1.214801515957851 1.177180025383273 1.1078599445608468 1.0231387312472837 
0.5010480168173572 0.4655076763613054 0.45079018551654404 0.4710242972691751 0.5367879164074585 0.6494486043814204 0.7978709615242213 0.9595533400146429 1.106304551556828 1.2124445040110072 1.2622812273637398 1.2539055050602355 1.1980128930357368 1.1126827905200105 1.0167283247713406 
0.5239440724213964 0.4880685422642102 0.4746457129421552 0.49995143543875825 0.5753587711443633 0.7009533853361485 0.8624197688238376 1.0332252778162174 1.1817753033749907 1.2808896754451353 1.315816670521274 1.2876287515854143 1.2109272214832252 1.1072971298135685 0.9976814969378723 
0.55882243482465 0.5256649464841546 0.5167129373899026 0.5491910650055487 0.6341938280303572 0.7700384919466311 0.9395829684088134 1.1133578433303688 1.2577706896025405 1.345285184733136 1.3625214968204702 1.3131422619357254 1.2147269095297333 1.0914511758540228 0.9660258587258679 
0.5941942081725564 0.5683371677834248 0.5680095828443273 0.6099380113115946 0.7039506157996109 0.8465100243540578 1.0185593750297572 1.1892790025936706 1.3247184038857525 1.3980276299616181 1.3972584447979648 1.327798205617724 1.2088892212845173 1.0662036973071565 0.9238964984936074 
0.6189844827100484 0.6053935217281778 0.6178726540241333 0.6711541200566646 0.7730236411997506 0.9183964861268001 1.087623009106439 1.25037395068953 1.3739788247151667 1.4330747873561462 1.4168382510196573 1.3311754319376068 1.195471605568308 1.0357500170805378 0.8773167000847065 

0.5788614006106862 0.4857313548611279 0.4090754851401689 0.37572111385177 0.3999359950036018 0.47868790160207025 0.5934800483510375 0.7177398309862848 0.8264656146667959 0.9040831240138009 0.9475205472313645 0.9638245534646962 0.9640912550699284 0.9569460535828813 0.9446662562397253 
0.5569003579373122 0.4677470223133682 0.39509733211295517 0.36525027150447764 0.3917598104974661 0.4707487912877078 0.5830758322857736 0.7021507639756119 0.8038296948080728 0.8741423207716472 0.9118648206766068 0.9254828853874693 0.9266475353279046 0.923611887133657 0.9177722489822154 
0.5616289591076957 0.4806617677081442 0.41689551010519055 0.39432058023103145 0.42412758271692563 0.5007110475289493 0.6044671428243449 0.709887880535556 0.7952021654307659 0.849366108789851 0.873704223281075 0.8781529264867329 0.8745381876766649 0.8704518391002666 0.8666144618041502 
0.5941022632673099 0.5245434840890171 0.47329432487106543 0.4605122032366069 0.49378535294585935 0.5653208656460074 0.6554958732968168 0.7409504884726901 0.8034496903640915 0.8356308486538915 0.8414678483619076 0.8319127390146617 0.8183954541421523 0.8076044985035074 0.7999567107395575 
0.6453923898416484 0.5885691812229462 0.55154785793828 0.5496262452778035 0.5861404646722594 0.6511185903573321 0.7255157437280098 0.7889397256777765 0.827269717484056 0.8368386060998582 0.8236998281470244 0.798953419919368 0.7729110637944965 0.7511571287152309 0.7342487404606106 
0.7007382609623087 0.6558371758790533 0.632590716429206 0.641076273229382 0.6804172520610603 0.7389301620923945 0.7987965432301466 0.8430295693579622 0.8615209984920478 0.8535697944922969 0.8261582284033944 0.7893696655442252 0.7516330258493793 0.7172908552335397 0.6874728156532692 
0.7449633373077962 0.7095362234442637 0.697769338157681 0.7148720393939173 0.7564687313800439 0.8100144361680717 0.8595235147328458 0.8914257928844936 0.8989014956675341 0.8829124327293956 0.8498811065161062 0.8076551608223771 0.7621419257115383 0.7164193021072026 0.6725536004097801 
0.7670399241415096 0.7379749165592727 0.7343033031701653 0.7573467019122977 0.8004783039970953 0.851372734763772 0.8963479984086954 0.9248630700328282 0.9322136957732939 0.9194383778683937 0.8909084991553826 0.8512551269422388 0.8035367191279904 0.7497211792637609 0.6930794327265597 
0.7625049742467391 0.7369770815022039 0.7378043618142736 0.7638361378995593 0.8077336679441498 0.8584902543732856 0.9049632953095064 0.9389205190390368 0.9563780969434017 0.9569090527171074 0.9416755925901498 0.9116117812684531 0.867058371068476 0.809248977936738 0.7428224608660943 
0.7335444110203327 0.7095345459463931 0.711737304702627 0.7381314808617204 0.7822044021007504 0.8351487628426713 0.8882657668149085 0.9346545277654321 0.9696507466710047 0.9901410597068295 0.9935016255539421 0.9771467667617295 0.9393472681040649 0.8811988477946952 0.8087695301536422 
0.6874003316144903 0.6636621460400869 0.6649241252086626 0.6898344851048817 0.7339656675917181 0.7911665136964517 0.8546879535177722 0.917802181448818 0.9739224002120748 1.0165182527250871 1.0392857395270205 1.036962979148959 1.0068606072818787 0.9507013750593212 0.87595432093922 
0.6340336034350267 0.6097188595545199 0.6085737102826203 0.6311900298669477 0.6760013129972376 0.7394240020833345 0.8157616146011788 0.8972046580642764 0.9742625026320139 1.036790005193748 1.075533917288406 1.0839247885170125 1.0597270852217384 1.0061319707956535 0.9319207584260801 
0.5837691225673056 0.5581027742572788 0.553890163611509 0.5745368482170421 0.6215355217848073 0.6932347788156763 0.7837743235151157 0.8830204649427379 0.9779098173563887 1.0549519334643525 1.1031122261183068 1.1161534186846456 1.0937863387506817 1.0414799412841054 0.9692282684650444 
0.5452730701770274 0.5175990082683859 0.5105252430270453 0.5306651203099529 0.5822129179930584 0.664391054707389 0.7698160895831362 0.884941532008049 0.9927981810831334 1.0771534952618018 1.1265334372821212 1.1366361230451294 1.110444023690474 1.0563793793368257 0.9856036696332804 
0.5239717375019551 0.4942167838445649 0.48555324254071436 0.5077071564767188 0.5667819282133599 0.6616167810874032 0.7820479093140846 0.9103468499145451 1.0256528116403822 1.1097701095082924 1.1520250250977857 1.1513193267454758 1.1148436604313787 1.054432781965085 0.9824847275439991 
0.5210359825514896 0.4903292648201024 0.48258739337906104 0.5101019939464001 0.5798445472711746 0.6890902904635646 0.8240055415209958 0.9623908629016709 1.0798574338382574 1.157052714533289 1.1850050354138597 1.1665167498395388 1.113370476582765 1.040995756477601 0.9632374599641375 
0.533200958880488 0.5042268640761969 0.501053021257265 0.5376215156629073 0.620694555043675 0.7451439686597927 0.8931699529051662 1.0384084037662682 1.1536381552782393 1.2190643750122196 1.227822519630949 1.1866038474634302 1.111529149751655 1.0214877006461973 0.9320935280548177 
0.5537228137725028 0.5304803337474308 0.536097328066286 0.5850113148596788 0.6828618222451723 0.8218168707149479 0.9805358104040474 1.1294210646457774 1.2393956382103797 1.290763207746152 1.278613613193181 1.212789384227054 1.112865934145323 1.0007244408098939 0.8940961224209949 
0.5745203142529749 0.5614648285287696 0.5797201649668262 0.6429872912433546 0.7551888420436634 0.906114576663974 1.0720216386719843 1.2215535567669233 1.3249393439583752 1.3629038956823265 1.331822091016027 1.2433321767181205 1.1190587419729476 0.983098060398159 0.8555548229155495 
0.5890515894153481 0.5899382116136213 0.6232732863098074 0.7008892547001083 0.8248018641880068 0.9833296702553961 1.1520244593892672 1.2995948829696098 1.3967851220629235 1.4248370068153227 1.3803589958641733 1.2750335490682345 1.1308121110181755 0.9730013286560671 0.824140932349296 

0.4962251685993208 0.39425172123719465 0.3205621257108977 0.3006353582360637 0.3439694416178696 0.4413025055104055 0.5689888047558789 0.6984077512370459 0.8062616729185572 0.8814853476728018 0.9262455312366761 0.9512805435438431 0.9683109656691995 0.9833276319817414 0.9938254181230467 
0.4625724543776516 0.36789519099896906 0.30335269229939044 0.29306339776244206 0.34463995604045883 0.4468072236231365 0.5744285626304338 0.6985162429391075 0.7967690985495147 0.8602117239878795 0.8935183112287054 0.9095833123111847 0.9214280055482265 0.9354616020055035 0.9491146582955863 
0.4598280849140334 0.3772865165625663 0.32682162377874546 0.32945721366983693 0.389582590466907 0.4934572505385951 0.6149783369935697 0.7259693484294172 0.8063955932598874 0.8502106750513502 0.8647701200244962 0.8647857327225281 0.8641728488325738 0.8697810775013576 0.879707921278432 
0.48990421115223964 0.42267433172353686 0.3891108861443744 0.4058072678495851 0.473138266183009 0.5749687824176528 0.6850672906556365 0.7772306480984322 0.8346154349359137 0.8543870266368346 0.8461681528314888 0.8256895774148527 0.8070960665894612 0.7976100698325183 0.7967029553728734 