# vtk DataFile Version 3.0
vtk output
ASCII
DATASET STRUCTURED_POINTS
DIMENSIONS 15 20 65
SPACING 1 1 1
ORIGIN 0 0 0
POINT_DATA 19500
SCALARS Image float 1
LOOKUP_TABLE default
0.759414095025 0.775423708976 0.792078588383 0.808407292595 0.823252596585 0.835457450869 0.844080443957 0.848594331184 0.849023608939 0.845988816535 0.84064384391 0.834514213227 0.829264650182 0.826439085216 0.827222442428 
0.69571013474 0.710784893816 0.724185538895 0.734993338921 0.742369484381 0.745736356192 0.744950801381 0.740426404945 0.733169904794 0.724713001063 0.716941671031 0.711846489862 0.711234959096 0.716456745263 0.728192778406 
0.637092789056 0.650463151716 0.659840392092 0.664403855766 0.663680076436 0.657712868302 0.647187821167 0.633473041351 0.61855165615 0.604841620253 0.59492084014 0.591196043841 0.595567911272 0.609149615998 0.632089766308 
0.585204397863 0.596349173606 0.601291781469 0.599338891591 0.590403592122 0.575159054231 0.555110062965 0.532550327176 0.510392283106 0.491879446821 0.480214781974 0.478157351046 0.4876497448 0.509537991899 0.543433442124 
0.541089677382 0.549820808594 0.550348975028 0.542119023563 0.525424529073 0.501541140848 0.472743458913 0.442180397511 0.413607375974 0.390999646101 0.378094707364 0.377928383196 0.392435182239 0.422177364829 0.466249245722 
0.505254606665 0.511770380986 0.508370455723 0.49462973355 0.471189493704 0.439867902744 0.40362296982 0.36635066081 0.332528166036 0.306740145617 0.293148947233 0.294983739754 0.314125205582 0.350851016127 0.40378429612 
0.477777216681 0.482675971555 0.476290364185 0.458299477949 0.42963548757 0.392570102888 0.350626550172 0.308308008209 0.270663791182 0.242743437924 0.229010883031 0.232801755359 0.255904163424 0.298327058484 0.35829283565 
0.458444778568 0.462695445307 0.454666387166 0.434100172663 0.402143648505 0.361410195969 0.315845570806 0.270396629599 0.230514817461 0.201555345013 0.188153197405 0.193664601117 0.21975560636 0.266198840877 0.330908506479 
0.446890100629 0.451760792588 0.443731779966 0.422557989117 0.38951145109 0.347420123747 0.300493893245 0.253945376441 0.213446951744 0.184493826006 0.171760767263 0.178544023068 0.206368927609 0.254819414286 0.321612077537 
0.442702344113 0.449653051205 0.443436628313 0.423764227154 0.391937462018 0.350865153305 0.304856798663 0.259208415395 0.219630438668 0.191594229305 0.179688653489 0.187078393334 0.215140933575 0.263331953614 0.32929373175 
0.445494398818 0.456044127443 0.453468641027 0.437380107502 0.409015518512 0.371233038895 0.328280784443 0.285361192175 0.248047420735 0.22163278509 0.210505789052 0.217639828222 0.244268680031 0.289789585685 0.351900131297 
0.454918246994 0.470500120996 0.473250702394 0.462634718989 0.439738911508 0.407249756502 0.369205467372 0.330552279078 0.296566554499 0.272225793602 0.261619499693 0.267483788348 0.290922968352 0.331350798691 0.386649125697 
0.470630285538 0.492449806458 0.501919782275 0.498320924033 0.482518869159 0.456924936314 0.425238957686 0.392010206254 0.362081314109 0.339997971867 0.329471158098 0.332968211597 0.351486313102 0.384531106212 0.430289819127 
0.492218497724 0.521130133173 0.538298201054 0.542798582049 0.535224383452 0.517631157588 0.493277563652 0.466202549447 0.440705531957 0.420809790032 0.409789216981 0.409825082345 0.421835276117 0.445488252816 0.479383118656 
0.519111005284 0.555526517182 0.580872431746 0.594016969483 0.595251394927 0.586220870367 0.569669138751 0.549042118722 0.528016716465 0.510030356862 0.497882659792 0.493464518821 0.49764492516 0.510317061232 0.530577868507 
0.550489608044 0.594328237807 0.627795721946 0.649568084116 0.659628058424 0.659182543911 0.650416606121 0.636131985113 0.619334545924 0.602839539305 0.588955591711 0.579289975893 0.574692764842 0.575330887418 0.580859972345 
0.58523173737 0.635917905683 0.676928492866 0.706779431031 0.725159196017 0.732833752951 0.731414297867 0.723037442374 0.710018814325 0.694540640396 0.678422319376 0.663002967487 0.649140634109 0.637309252359 0.627756033515 
0.621899818265 0.678408883674 0.725924980785 0.762849245257 0.788607506477 0.803543730537 0.808705154034 0.80556921307 0.79576831284 0.780863325105 0.762201919799 0.740876745123 0.717775532509 0.693695139197 0.669478391135 
0.658789063017 0.719736503201 0.772366759487 0.815019755858 0.846902468286 0.867972213047 0.878742227975 0.88005885294 0.872900115477 0.85823586567 0.83697209555 0.809980560147 0.778193868306 0.742730228391 0.705004353148 
0.694034508364 0.757799233455 0.813934898581 0.860776253648 0.897361267069 0.923306178882 0.93863419611 0.943605074319 0.938588009369 0.924006497698 0.900364182155 0.868339422245 0.828917962144 0.78352156003 0.734088327648 

0.661394130431 0.679742690243 0.699510180026 0.719679838677 0.739015241951 0.756248059055 0.770299120966 0.780486122804 0.78667301768 0.789327312588 0.789469768237 0.788522705106 0.788083799806 0.789667683332 0.794464633953 
0.599921671162 0.617344911721 0.633824252508 0.648416696413 0.660221634064 0.668563906658 0.673173308076 0.674316966359 0.672848502635 0.670153467548 0.667991211935 0.668254879165 0.672689175697 0.682616187683 0.698720383478 
0.545718153488 0.561446780372 0.57382039446 0.582015680601 0.585518924425 0.584297641 0.578931312935 0.570662280646 0.561340822593 0.553258056934 0.548882682445 0.550538253389 0.560072346299 0.578574391786 0.606193620001 
0.500343415773 0.513864012765 0.521684536872 0.523129460618 0.51809560763 0.507206961766 0.491891953005 0.474350135503 0.457393356808 0.444169534824 0.437800602848 0.440985366558 0.455628901931 0.482560139951 0.521387881857 
0.464691618648 0.475835711734 0.479105859794 0.473982231148 0.460766520515 0.440716052998 0.416065561771 0.389910448368 0.365948203363 0.348100443817 0.340061833941 0.344839268945 0.36435147098 0.399153746395 0.448335496087 
0.439051742419 0.448051819473 0.447263609784 0.436310149771 0.415863445128 0.387755504928 0.354945144562 0.32132201043 0.291356189028 0.26962956216 0.260308555161 0.266632469271 0.290494046104 0.332178260466 0.390302939446 
0.423222751801 0.430726708086 0.426853308161 0.411336302462 0.385157271704 0.350632651837 0.311328487468 0.271792482661 0.237123101462 0.212424492 0.202218494624 0.209896559334 0.237292490912 0.284441375102 0.349563088503 
0.416658363585 0.423698404267 0.418136951831 0.399770255816 0.369807377424 0.330933496762 0.287177602928 0.243582449364 0.205707246514 0.179022974354 0.168281046553 0.176944330513 0.206763346786 0.257560490826 0.327254454084 
0.418614258287 0.42653146906 0.421000695849 0.401821250881 0.370332739174 0.329455901321 0.283519855095 0.23788186889 0.198379854285 0.170686719382 0.159654348492 0.168739743543 0.199595631168 0.251884079728 0.323338244228 
0.428272894295 0.438603874631 0.435005542039 0.417215576038 0.386599995024 0.346173438142 0.300393706469 0.254744645901 0.21515598655 0.187336419325 0.176112067278 0.184863670829 0.215141868411 0.266513164997 0.336654031751 
0.444827319169 0.459163834251 0.459421262158 0.445212203873 0.417825865484 0.380230013122 0.336841178157 0.293084632485 0.254799663909 0.227571264323 0.21608203151 0.22357563745 0.251506022992 0.299417494824 0.36506511104 
0.467514419938 0.487350409662 0.493240220038 0.48461558533 0.462594396306 0.429966598364 0.390948544882 0.350734070867 0.314903057829 0.288771027727 0.276772453626 0.281964518029 0.305718140489 0.347632806329 0.405676387312 
0.495598367043 0.522180433617 0.535174684865 0.53378951625 0.518892552693 0.492982557804 0.459936100233 0.424563146358 0.392035817941 0.36727385742 0.35437570822 0.356174850077 0.373979012336 0.407519205139 0.455101673762 
0.528314848818 0.562512298464 0.583647313481 0.590680120376 0.584169909054 0.566234459899 0.540296617891 0.510656727023 0.481956919848 0.458618457847 0.444334762435 0.441690487694 0.451953519562 0.475056616123 0.509754066346 
0.564794415944 0.60700304389 0.636788523316 0.652858263234 0.65542880293 0.64617443748 0.627980082308 0.604541382536 0.579877823836 0.557835484463 0.541653573519 0.533653963684 0.535088699528 0.546151677189 0.566132743884 
0.603987561789 0.654077852467 0.692455622734 0.717591477299 0.729349906623 0.728927798142 0.71861923819 0.701452383717 0.680762293929 0.659769803238 0.641230185902 0.627198226428 0.618932021846 0.616931253655 0.621081877395 
0.644614321924 0.701929991992 0.748286454997 0.781952545221 0.802454656769 0.81050575837 0.807786636005 0.796626749625 0.779645105625 0.759412924258 0.738189937356 0.717767329635 0.699426682018 0.684000615156 0.672001820415 
0.685157136032 0.748564525529 0.801795163211 0.842966564627 0.871300742489 0.887044271266 0.891269524828 0.885604884787 0.87194934978 0.8522235758 0.828196162583 0.801404061282 0.773163628378 0.744648751239 0.716998699287 
0.723908126365 0.791891469768 0.850510268782 0.897791390472 0.932700651363 0.955054652385 0.965344790828 0.964520448192 0.953780493033 0.934414255338 0.907717095357 0.874985242402 0.83757416798 0.796988739495 0.754965160373 
0.759072054252 0.82986476682 0.892146788505 0.943918964917 0.983947156361 1.01166700086 1.02703292836 1.03035641616 1.02217519425 1.00318289377 0.974230333552 0.936389322768 0.891051970316 0.840026954655 0.785591618968 

0.567450704449 0.587603545479 0.609737995916 0.63280665771 0.65552033893 0.676536473577 0.694683920508 0.709177348693 0.719775521406 0.726848428186 0.731336214069 0.734604560729 0.738222167052 0.743701970035 0.752255444931 
0.508627385957 0.527999807242 0.546964031903 0.564558169137 0.579835564347 0.592049206293 0.600836372526 0.606359467181 0.609365805728 0.611144233006 0.613376934362 0.617906480029 0.626456575571 0.640356299528 0.660319283769 
0.459100933204 0.476903371492 0.491816974207 0.503012953995 0.509943175897 0.512513478868 0.511220321958 0.507211002346 0.502240038641 0.498513506727 0.49843543381 0.504291317176 0.517919086276 0.540424029546 0.571989723536 
0.42034773477 0.436051583664 0.446412837058 0.450764191391 0.448983249837 0.441649132913 0.430125852547 0.41653832167 0.403624453496 0.394469518546 0.39215242634 0.399353189827 0.417982401876 0.448894407436 0.491735284138 
0.393120916228 0.406552893382 0.412325845237 0.409940539251 0.399696516344 0.382827984567 0.361531389033 0.338857233263 0.318461081752 0.304234270431 0.299858848387 0.308348908475 0.331647989811 0.370347683362 0.423576191088 
0.377510913773 0.388912865207 0.390571970336 0.382141272416 0.364307612974 0.338904457967 0.308883864048 0.278127663336 0.251104466708 0.232406850063 0.226226899371 0.235843458973 0.263197686213 0.308623686468 0.370779286007 
0.373062539513 0.383107523981 0.381632376673 0.368405746798 0.344438952679 0.312074951859 0.274907460254 0.237518313378 0.205051119894 0.182668414544 0.174962477096 0.185402268361 0.215897852918 0.266548880135 0.335617297193 
0.378924247917 0.388684587019 0.385502736163 0.369208914856 0.341052829999 0.303769357491 0.261449802848 0.219215073926 0.182719654853 0.157545005124 0.148562482223 0.159354965898 0.191781012671 0.245746075694 0.319215057608 
0.394002989535 0.404871478641 0.40175312151 0.384473516328 0.354418190174 0.31457662353 0.269372432841 0.224284237818 0.185295977192 0.158244918172 0.148155009021 0.158648881973 0.191522405183 0.246542512919 0.321495844696 
0.417099991531 0.43067098286 0.429584860968 0.413590686393 0.384098813733 0.34420560917 0.298490610416 0.252598554225 0.212653643509 0.184581829134 0.173433692827 0.1828026409 0.214419985388 0.267982183592 0.341230408584 
0.447008602636 0.464930525464 0.467874919373 0.455443704058 0.428961256372 0.391482528813 0.347565967361 0.302831038205 0.263354835112 0.234988768421 0.222690108128 0.229961733293 0.258477026318 0.307938240583 0.376180757412 
0.482563948477 0.506378427137 0.515204208541 0.508433736335 0.487203186285 0.454386712174 0.414354088585 0.372518245115 0.33473257726 0.306621833183 0.29294074693 0.297049716499 0.320577665967 0.36331220888 0.423321604909 
0.52264408898 0.553628710511 0.569872580579 0.570510777867 0.556405059232 0.530126694107 0.495707499902 0.458191407732 0.42305005981 0.395546573817 0.380138317446 0.380001399198 0.396738282941 0.43029942142 0.479115543868 
0.566131975332 0.60516370342 0.629908874723 0.63921653703 0.633609609209 0.615258298819 0.587732499178 0.555570362539 0.523728322762 0.496994628279 0.479451332663 0.474058563516 0.482412109492 0.504695281556 0.53981412758 
0.611855156814 0.659309380002 0.693088139077 0.711747893579 0.71543376816 0.705844981405 0.685995587143 0.659811538217 0.631629287171 0.60567363029 0.585591520157 0.574104812351 0.572821335787 0.582214908449 0.60175635024 
0.65852459895 0.714221067093 0.756969213147 0.785049153448 0.798215972004 0.797658029153 0.785771879716 0.765797510193 0.741377285519 0.716109877508 0.693165667302 0.675014150375 0.66329019912 0.658799415297 0.661638343039 
0.704694389992 0.767896268289 0.818963879606 0.855938468647 0.878198322789 0.886410380046 0.882323968321 0.868451934032 0.847699072083 0.823000872217 0.797027204423 0.771987889485 0.749554020372 0.730885170067 0.716732924584 
0.748760439966 0.818226981271 0.876443960614 0.921268758347 0.951738106887 0.96801316559 0.971195612587 0.963060390246 0.945760029079 0.921553785885 0.892603128327 0.860856252355 0.828022498151 0.795617340952 0.76504419504 
0.789009104611 0.863096674224 0.926885760577 0.978116989325 1.01553742379 1.03883928145 1.04850096514 1.04557525045 1.03147323072 1.00778628461 0.976173727463 0.938324377526 0.895980334748 0.850995155807 0.805389751863 
0.823717177704 0.900518224326 0.968043285555 1.0239888201 1.06687412543 1.0959741663 1.11118741865 1.11288161069 1.10175849387 1.07876809207 1.0450858874 1.00214699806 0.951713935557 0.895942900056 0.837410443412 

0.482500106197 0.503682800198 0.527198736446 0.551990692037 0.576748549431 0.600096949088 0.620821683427 0.638088072759 0.651605086755 0.661699122784 0.669279069947 0.67569598469 0.682521977012 0.691289421283 0.703239967509 
0.426428567019 0.447108614106 0.467732412557 0.487330061015 0.504929123261 0.519739677401 0.531342802657 0.539838056104 0.545911675278 0.550801932356 0.55615837057 0.563813484229 0.575504288479 0.592593208375 0.615840164191 
0.381453535797 0.400799070187 0.417571913828 0.430939943827 0.440330050389 0.44560310642 0.447196020497 0.446190348322 0.444278665072 0.443618719871 0.446587662489 0.455469889189 0.472127901624 0.497712563184 0.53246548842 
0.348973576517 0.366415927679 0.378761675185 0.385346643329 0.386029042613 0.38134839212 0.372615208926 0.361896262545 0.351877189349 0.345606689615 0.346150102771 0.356200175178 0.377705113036 0.41157572487 0.457523735876 
0.329619681593 0.344954091604 0.352774473975 0.352591629308 0.344694726445 0.330289923679 0.311534579843 0.291438321429 0.273624072556 0.261967576908 0.260158139854 0.271241498424 0.297214040788 0.338733930328 0.394999123572 
0.323314210069 0.336764463556 0.340490073853 0.334159974032 0.318461435388 0.29521590664 0.26735747994 0.238752579713 0.213865586276 0.197302830434 0.193291541914 0.205166152625 0.234938455661 0.28301916524 0.348137443594 
0.32938705524 0.341624202777 0.342213145462 0.330941740015 0.308832493889 0.278234832313 0.242750253849 0.20697686439 0.176089474693 0.155300718438 0.149272080023 0.161556747142 0.194155989723 0.247256795093 0.319192713351 
0.346725858343 0.358836341432 0.357718110956 0.343220027524 0.3166118783 0.280653764641 0.239472775411 0.198241596976 0.162686179675 0.138479603958 0.130601377042 0.142751292977 0.176902511734 0.23305996983 0.309260443658 
0.373934624304 0.387338952026 0.386307264454 0.370678283504 0.34186297297 0.302892915784 0.258255288777 0.213517230435 0.1747767471 0.148007260487 0.13838305878 0.149679464613 0.183832983201 0.240724176733 0.318213121401 
0.409476717345 0.425805697601 0.426869867774 0.412420264398 0.383893138149 0.344439995289 0.298729084218 0.25252899026 0.212120279599 0.183610207848 0.172243215896 0.181803013958 0.214189752612 0.269230013756 0.344742385728 
0.451783543727 0.472724222281 0.477933552473 0.466998435912 0.441263766168 0.403847219168 0.359416314182 0.31374577021 0.273108402692 0.243580203348 0.230355048807 0.237164071289 0.265879104667 0.316351429354 0.386501075951 
0.499318309988 0.526445585309 0.537704516004 0.532449971107 0.51182698424 0.47877340817 0.437781891995 0.394445868339 0.354848412866 0.324877812051 0.309565203997 0.312535836196 0.335647075288 0.378856582625 0.440328220342 
0.550593691071 0.585205579179 0.60409864543 0.606343053026 0.592791576526 0.566072939463 0.530347800801 0.49085788552 0.453330926294 0.423325953548 0.405611448453 0.403661820239 0.419337074434 0.452780213834 0.502532273932 
0.604151455448 0.647125922728 0.674770698704 0.685839015987 0.680821421469 0.661932076611 0.632867152884 0.598370652074 0.563672252236 0.5338799581 0.513414582754 0.5055630652 0.512205503123 0.533740782474 0.569203296147 
0.658519520052 0.710208679915 0.747151977984 0.767777189669 0.772169246568 0.762051102186 0.740551909369 0.711801615547 0.680416645197 0.650955345464 0.627422318338 0.612888113399 0.609267786204 0.61727305908 0.636523636453 
0.712166288516 0.772339816258 0.818507780564 0.84878861656 0.862846483346 0.861867598747 0.848344339914 0.825708879369 0.797879292132 0.768790552425 0.741979524654 0.720278188635 0.705646223845 0.699147385241 0.70104895827 
0.763472706317 0.831317030119 0.886023975438 0.925441940988 0.948826456638 0.956812282457 0.951218268755 0.934728267464 0.910507605622 0.88181937976 0.85169790696 0.82272006031 0.796892644662 0.775650118536 0.759936554541 
0.810739121136 0.88491291945 0.94692749422 0.994419985845 1.02627340229 1.04258435921 1.04449228153 1.03391372479 1.01323636163 0.985027131471 0.951798783176 0.915861211867 0.879262626795 0.843805245571 0.811105057466 
0.852237300056 0.930977781114 0.998639006789 1.05271951677 1.09178452857 1.11542904141 1.12413386199 1.11905743181 1.10181167486 1.07426533772 1.03840505349 0.996265873011 0.949923475593 0.901523988609 0.853317809513 
0.886308941241 0.967577997761 1.03894864052 1.09786043246 1.1426274005 1.17239637842 1.187031471 1.1869656121 1.1730599479 1.14650258176 1.1087624784 1.06159576751 1.00708456128 0.947676600863 0.886190305262 

0.411128931328 0.432350302208 0.456069912367 0.481247126535 0.506586438317 0.530722708417 0.552446895101 0.57092571367 0.58586864353 0.597605382285 0.607054280519 0.615583959387 0.624791828838 0.636240210687 0.651199739439 
0.357642276994 0.378754900764 0.400012496299 0.420453766523 0.43910437933 0.455161745748 0.46818592325 0.478251894568 0.486024075095 0.492728172247 0.500015664014 0.509738138196 0.523668051292 0.543215095742 0.569190549458 
0.316757731709 0.336866261826 0.354609768291 0.369160756093 0.37993408055 0.386763326067 0.390047654789 0.390827866763 0.390761548488 0.391985650367 0.396877065025 0.407743335934 0.426492065592 0.45433536319 0.491582845747 
0.289806920532 0.308278531357 0.321837880196 0.329824731341 0.3320810634 0.32911264412 0.322185176714 0.313318724289 0.305160545011 0.300738625883 0.30312186337 0.31503329881 0.338475814995 0.37443228222 0.422693279004 
0.277325357106 0.293897800327 0.303088977282 0.304415159626 0.298150095038 0.285467153097 0.268480973333 0.250158507842 0.234090676203 0.224141102548 0.224012817128 0.23679254794 0.264541355966 0.307997616255 0.366443627751 
0.279107903902 0.293959982577 0.29914328331 0.294334655888 0.280210434217 0.258566397955 0.232304058501 0.205260281819 0.181882952076 0.166783055957 0.164218054927 0.177577900211 0.208950020267 0.258831572392 0.326037058245 
0.294320981783 0.308094929358 0.310178555951 0.30036959158 0.279686164642 0.250463631164 0.216287458144 0.181746923273 0.152023789042 0.132359473508 0.127468141417 0.140976924034 0.174975168463 0.229741526146 0.30369260089 
0.321649781065 0.33542044351 0.335806564723 0.32266698512 0.297274036443 0.262387897487 0.222140575177 0.181722346043 0.146895818541 0.123393050098 0.116273838557 0.129334043467 0.16464922519 0.222321156736 0.300465522527 
0.359456231359 0.374648124212 0.375125007109 0.360732655685 0.332890203427 0.294643978112 0.250509195961 0.206100448582 0.167586306936 0.141033745031 0.131728972199 0.143568709118 0.178608284191 0.236831122025 0.316171694427 
0.405924823487 0.424184324861 0.426774347176 0.413446135743 0.385646965517 0.346556320496 0.300893500572 0.254505445602 0.213779086019 0.184952204778 0.173415355562 0.183101405582 0.216047824605 0.272191671121 0.349422467002 
0.459178219908 0.482213608782 0.488992129758 0.479089629185 0.453860954007 0.4164618222 0.371631536899 0.325252702558 0.283739777713 0.253336480831 0.239417842629 0.245893270168 0.27479217442 0.326085989761 0.397764473066 
0.517352066287 0.546758152759 0.559661727113 0.555390860515 0.53509480049 0.501754952022 0.459952289 0.415414033287 0.374397287233 0.342993242499 0.326448203581 0.32859485677 0.351469555118 0.395162003037 0.45790771458 
0.578627237568 0.615713458967 0.63635729765 0.639582294959 0.626234758404 0.598986978788 0.562098761269 0.520965933686 0.481517551747 0.44954652274 0.430067533428 0.426790146296 0.441775019821 0.475311088912 0.526016570498 
0.641226416982 0.686867225038 0.716390965521 0.728481174402 0.723606525075 0.704018829363 0.673517456887 0.637013685892 0.599958848919 0.567719595971 0.544989115628 0.535314171167 0.540796305495 0.56199565673 0.598032956066 
0.703388944266 0.757913083791 0.796870934123 0.818595452971 0.823130250845 0.812224170556 0.789106333139 0.758078950855 0.72399201925 0.691679411431 0.665437676021 0.648617224392 0.643373181556 0.650594387595 0.669999248727 
0.763342075848 0.826473218618 0.874779745629 0.906259595505 0.92051321353 0.91873569604 0.903508923273 0.878433653643 0.847664101085 0.815418494729 0.785537172035 0.761145905501 0.744459542711 0.736734240643 0.738350737853 
0.819287437778 0.890143079877 0.947079896804 0.987801214508 1.0114749316 1.01872347321 1.01143808256 0.992458955041 0.965180415981 0.933146637267 0.899697834671 0.867711257698 0.839459145113 0.816581795128 0.800152739744 
0.869418378929 0.946567594861 1.01084967982 1.05973493416 1.09199492689 1.10768993767 1.10800911084 1.09500521491 1.07127830999 1.03966413201 1.00297407501 0.963816747649 0.924510088903 0.887072464651 0.853265251522 
0.911977631892 0.993551946119 1.06344605094 1.11897431136 1.15856853162 1.1817622599 1.18905927573 1.18172741196 1.16156572232 1.13068977255 1.09136786876 1.04592339912 0.996699245869 0.94606369258 0.896426972079 
0.945356205276 1.0292022235 1.10268452717 1.16304702039 1.20845185809 1.23796000063 1.25142949461 1.24937078757 1.23279960972 1.20312018846 1.16205699841 1.11163544875 1.05419503516 0.992406424549 0.929259507363 

0.35731806825 0.377413815236 0.400028728039 0.424169789526 0.448593492839 0.471986887808 0.493190397031 0.511416203179 0.526415483199 0.538556992028 0.548796641029 0.558539328317 0.569415992676 0.583016266438 0.600626619654 
0.306062010531 0.326531861424 0.347244857623 0.367270298239 0.385658378788 0.40162362567 0.414736758551 0.425080038464 0.433326210827 0.440715018286 0.448921240498 0.459830321011 0.475257365063 0.496658533597 0.524887743035 
0.268564322392 0.288431668015 0.306085611856 0.320717243562 0.331745406243 0.33899407106 0.342843313107 0.344311946734 0.345040443685 0.347160879295 0.353062850786 0.365086166558 0.385188128334 0.414641764462 0.45381935199 
0.246104014028 0.264651348835 0.278465880998 0.286898600304 0.289781902 0.287593978824 0.281561498848 0.273663178622 0.266512726923 0.263121525803 0.266565170281 0.279598894592 0.3042806371 0.34166395308 0.391614984671 
0.239153260431 0.25603842211 0.265723455656 0.267732375133 0.26232222446 0.250629378359 0.234719360066 0.217508639938 0.202547685465 0.193679615336 0.194613441815 0.20847020466 0.237370259909 0.282128173864 0.342107824638 
0.247427475571 0.262760870576 0.268582888788 0.264577420668 0.251402438224 0.230815038198 0.205666819693 0.1797449318 0.157459373408 0.143404743771 0.141849471496 0.156222720985 0.188675052904 0.239781832587 0.308439019524 
0.269990329175 0.284361912828 0.287153454076 0.278170513583 0.258415319393 0.230189293152 0.197035325536 0.163502715548 0.134746745731 0.116004297022 0.112011270444 0.126442139585 0.161453588828 0.217402030911 0.292780453922 
0.305393712476 0.319844181664 0.320953157861 0.308588244776 0.284010896415 0.249956891262 0.210529513365 0.170896326378 0.136812550997 0.114024538907 0.107630102483 0.121484036946 0.157734547879 0.216559429655 0.296142221185 
0.351830243689 0.367767400297 0.368949696492 0.35523147346 0.328026943321 0.290370493515 0.246767047189 0.202831422518 0.164749986237 0.138628638947 0.129812751622 0.142273013918 0.178144418205 0.237484568283 0.318285466343 
0.40727701225 0.426344776784 0.429610101563 0.416830395602 0.389453351165 0.350659983173 0.305180186164 0.25888760873 0.218216313787 0.189471895942 0.178129094696 0.18821289894 0.221849569789 0.279049487917 0.357749260004 
0.46961361286 0.493526911639 0.500953321869 0.491469474635 0.46643401009 0.429016838755 0.383989061754 0.337287753076 0.295405832489 0.264686134882 0.250615472122 0.257216014355 0.286617322234 0.338865151736 0.41198731057 
0.536704325462 0.567067335403 0.580603583735 0.576633169486 0.556309514923 0.522638475934 0.48025232488 0.434959542661 0.3931267615 0.360975998438 0.343893946645 0.34584825686 0.368988827777 0.413483106376 0.477598295731 
0.606442375359 0.64456986315 0.665846263642 0.66927501962 0.655703359208 0.627834622998 0.589995950591 0.547688153781 0.506978420484 0.473820515175 0.45339740413 0.44957618846 0.46454598772 0.498679522235 0.550623893174 
0.676762174196 0.723523634036 0.753691328488 0.765913617173 0.76065299559 0.740194426418 0.708415791122 0.670352205214 0.63161724394 0.597764747035 0.573681559598 0.563093551747 0.568246343561 0.589792337466 0.626882345377 
0.745631930016 0.801335908952 0.840951350215 0.862758799709 0.866784977452 0.854809106776 0.830144195556 0.797228863909 0.761093248721 0.726779209768 0.698798064513 0.680698413459 0.674794712991 0.682078428485 0.702303226336 
0.811042896095 0.875374579083 0.924341105596 0.955869713553 0.969530272224 0.966540719718 0.94956595253 0.922348493174 0.88923307678 0.854659650152 0.822698582923 0.796688960062 0.77901863224 0.771057758446 0.77323104115 
0.871012105804 0.943031434714 1.00060359213 1.04134318602 1.06437187344 1.07032317111 1.06116429594 1.03987494986 1.01004203032 0.975436973405 0.939638141016 0.905745911067 0.876216343237 0.85281503949 0.836670887275 
0.923612568953 1.00181358405 1.06666309753 1.11552638549 1.14711238979 1.16147747672 1.15987412143 1.14448487898 1.11809584395 1.08376675519 1.04454720614 1.00327233578 0.962450665094 0.924235887195 0.890457695437 
0.967039026475 1.04946452269 1.11980032875 1.17524262874 1.21414491752 1.23601984494 1.24141729607 1.23171839308 1.20889340822 1.17526976701 1.13334552908 1.08566684258 1.034768862 0.983162752286 0.933340314162 
0.999709446181 1.08410919353 1.15783844451 1.21801423796 1.26270691264 1.2909390548 1.30259439165 1.29827455232 1.27914425394 1.24679905301 1.20317632141 1.15051296112 1.09133664406 1.02846494976 0.964981567807 

0.324183919868 0.341882256994 0.362028418294 0.383711181343 0.40577639352 0.427002007623 0.44631585392 0.463010482161 0.476908397343 0.488439789653 0.498611693461 0.508869030981 0.520869861378 0.536214921091 0.556181548671 
0.274720090868 0.293331829384 0.312234479544 0.330554270922 0.347393603261 0.362011964011 0.374017338144 0.383523089058 0.391229811089 0.398405121774 0.406754173841 0.418195876364 0.434579911918 0.457393451181 0.487511009093 
0.239778399526 0.258233606395 0.274623998168 0.288178494485 0.298338254697 0.304934494355 0.308342908408 0.309572133858 0.310253695467 0.312518664698 0.318768425126 0.331369079015 0.352316619174 0.382929272481 0.42362218477 
0.220600967613 0.23808295619 0.251059693342 0.258906659403 0.261456423777 0.259165856863 0.253225364574 0.245571661958 0.238780914371 0.235840704991 0.23982313666 0.253502728087 0.278977212749 0.317353679823 0.368555358982 
0.217631684526 0.23370205783 0.242854392813 0.24462914178 0.239269025775 0.22786995434 0.212439676879 0.195831156934 0.18153794166 0.173363706986 0.175003009847 0.189590179115 0.21928408052 0.26495563244 0.326031992238 
0.230559000011 0.24524234437 0.250725081833 0.246703911728 0.233815004028 0.213764926012 0.189336312058 0.16424185036 0.142824940124 0.129632915758 0.128913902167 0.144106229712 0.177396138923 0.229413409686 0.299116058059 
0.258410445683 0.272226708525 0.27477634696 0.265877378074 0.246508706799 0.218919346401 0.186581690606 0.153969790192 0.126172266568 0.108378967246 0.105305283832 0.120633391151 0.15655226381 0.213467138785 0.289925549327 
0.299680949242 0.313619493682 0.314507753336 0.302227410634 0.278019660758 0.244572843056 0.205926675996 0.16718190212 0.134036015004 0.112196390684 0.106745972826 0.121549085641 0.158783298913 0.218667319906 0.299426956405 
0.352474790885 0.367910936584 0.368838920209 0.355129431608 0.328182522953 0.290995305753 0.248022912752 0.204829542414 0.167560643071 0.142298342309 0.134384472943 0.147804781168 0.1847221164 0.245226192824 0.327336018553 
0.414642001472 0.433203705612 0.436146763603 0.423246624345 0.395944363597 0.357397246414 0.312304080174 0.266510046798 0.22643142672 0.198371283414 0.187817306294 0.198818887607 0.233530841522 0.291987356747 0.372135669271 
0.483893870698 0.507292236075 0.514311333138 0.504545929631 0.479355540196 0.441901349317 0.396944930964 0.350420916225 0.308832026565 0.278544372906 0.265078463716 0.272493829806 0.302952009077 0.356515986281 0.431208514996 
0.557888313311 0.58773009198 0.600769407184 0.596342277874 0.575609151556 0.541581916776 0.498905651828 0.45341408588 0.41151358913 0.379478064734 0.36275167809 0.365355457414 0.389477632306 0.435298966047 0.501068209711 
0.634283069024 0.671885710822 0.69257787687 0.695374033708 0.681132259499 0.652574881311 0.614062992204 0.57114982492 0.529972407852 0.496565854735 0.476195910842 0.472801254142 0.488618462119 0.524032908513 0.577663385282 