# vtk DataFile Version 3.0
vtk output
ASCII
DATASET STRUCTURED_POINTS
DIMENSIONS 15 20 65
SPACING 1 1 1
ORIGIN 0 0 0
POINT_DATA 19500
SCALARS Image float 1
LOOKUP_TABLE default
0.475913685021 0.535614935398 0.645474426577 0.780245919789 0.918325607169 1.04467062754 1.14950056962 1.22573834007 1.26818573246 1.27529650611 1.25183578333 1.20959288333 1.16440334573 1.13022047845 1.11312498042 
0.530576688547 0.595130609115 0.695050656174 0.811601527972 0.933654313037 1.05421538416 1.1643919507 1.25071668864 1.2987148034 1.30056107272 1.26132129857 1.19892970638 1.13713709882 1.09523438586 1.08029281112 
0.599616945269 0.660512456352 0.742400493231 0.835090947564 0.936961643003 1.04659831108 1.15469261928 1.2430381388 1.29196640163 1.29128803466 1.24719910173 1.18035454223 1.11624471692 1.07386375593 1.05917383919 
0.651385886987 0.703810758228 0.766704924977 0.836997050554 0.918762693379 1.01301282644 1.11023196733 1.19145489523 1.23729295343 1.23867023382 1.20202692266 1.14582290307 1.0911378791 1.05267820217 1.0352830251 
0.663982065837 0.709372463016 0.760080442674 0.815608319281 0.880447922637 0.955510191844 1.03302466887 1.09850477601 1.13808132786 1.14585739349 1.12638788752 1.09126626817 1.05297921792 1.02053565872 0.999117607468 
0.634974288418 0.681521579627 0.732779366392 0.784675388481 0.837196803933 0.8901791914 0.940729256607 0.983751292034 1.01446236007 1.03053541455 1.03236554804 1.02193358383 1.0020082654 0.976836796529 0.953542080491 
0.581560208003 0.641941615576 0.708360075666 0.767559371195 0.812068370018 0.84139436456 0.860672071453 0.877260206813 0.896591430894 0.919096230081 0.939824287268 0.951282671641 0.948325551933 0.932519076758 0.913228896002 
0.531658962627 0.618403015757 0.711327881366 0.784912892866 0.824049988651 0.829781585979 0.817135967284 0.806222367125 0.811495100519 0.835038251577 0.867269853937 0.894106903786 0.906005596771 0.903524954929 0.896479306949 
0.510848252435 0.630954652886 0.753992968211 0.842749366497 0.876844589197 0.860752621842 0.819057619234 0.782146748835 0.77082507395 0.788313550715 0.823003731559 0.858666697619 0.884849871197 0.901211692137 0.91439785801 
0.531636747186 0.68267399901 0.829634691368 0.927706033064 0.955050853968 0.92044200654 0.85533456817 0.796032778853 0.766703877948 0.772179634736 0.802436531078 0.84334189772 0.885473178848 0.925901692308 0.963980231427 
0.589766902626 0.759247164333 0.915443479649 1.01226553021 1.030211953 0.981632941257 0.900540152378 0.824307158935 0.778125008379 0.769615698981 0.793509573662 0.840158525289 0.900868305539 0.967459827078 1.02921094031 
0.668352693847 0.836842700335 0.983364765005 1.06714819426 1.07357094942 1.0164526139 0.927746939096 0.84195128543 0.783996425939 0.765323385324 0.786703266843 0.8426069431 0.922910001629 1.01202632649 1.08931011551 
0.746891253023 0.893689044348 1.01298226532 1.07431476608 1.06870962031 1.00885200691 0.921171572604 0.835131724339 0.774926728749 0.755675294856 0.782773154803 0.851889026947 0.948694821171 1.05000829429 1.12893943303 
0.810397234767 0.919503414358 1.00003608902 1.03410073466 1.0176685499 0.960388859951 0.881874637204 0.806306640154 0.756800101645 0.750181482752 0.792548851649 0.876510916557 0.981682343695 1.0798033159 1.14418573192 
0.854641571089 0.91873180994 0.957025894152 0.963611761435 0.938171596426 0.887093639319 0.824275146574 0.769686886653 0.744471661701 0.763474286364 0.828296237753 0.924662142904 1.02635611406 1.10488925493 1.14106386341 
0.885904283612 0.907043494147 0.906650911748 0.888275880736 0.854568177021 0.810394729693 0.766770315241 0.740879339761 0.750163325953 0.803044614342 0.892015308124 0.994168838839 1.08005656612 1.12672523588 1.12820152924 
0.916273426895 0.903626234288 0.872080250528 0.831554646994 0.788029650845 0.747970227653 0.722791059336 0.727757933122 0.774369725079 0.86096761547 0.968724606462 1.06731736242 1.12832769654 1.1390997381 1.10911012625 
0.957105526301 0.923102425214 0.868695075005 0.807740869334 0.750884221907 0.709405255502 0.697440071966 0.728182157367 0.80526741184 0.915597458361 1.03028594484 1.11554994639 1.14850794237 1.12889206159 1.07960069997 
1.01341949089 0.970174669054 0.900191472381 0.820077698056 0.746596721184 0.697671588278 0.690525744693 0.735242642416 0.826977877595 0.943000975311 1.04896008771 1.11306326483 1.12113949164 1.08397743958 1.03237481548 
1.08112897665 1.038335052 0.959290138616 0.863172123608 0.77326294134 0.713490360531 0.702378487391 0.74561363185 0.831221310052 0.931603394331 1.01352766758 1.05232216755 1.04325771869 1.0038938101 0.965876499223 

0.425223506391 0.499799733051 0.625303461201 0.773806844228 0.921770404243 1.05278810395 1.15598807035 1.22355920121 1.25051837358 1.2371800806 1.19198241962 1.1314559265 1.07578889187 1.04141786588 1.03426637814 
0.492394278329 0.571713752786 0.686066631887 0.814972306232 0.946110187787 1.07153826238 1.18145365491 1.26173720395 1.298108553 1.28432963534 1.2284801643 1.15227227603 1.08288891921 1.04167311908 1.03585426871 
0.574835022502 0.649185565809 0.743417460998 0.84621370302 0.955180758629 1.06834775121 1.17605077607 1.26009923943 1.30145362922 1.29128474586 1.23774170374 1.16365378222 1.09645510466 1.05648021765 1.0501818312 
0.640927657138 0.705020653268 0.777592236037 0.854696695539 0.9399079597 1.03429350922 1.12904079905 1.2063846618 1.24825990305 1.24662857385 1.20848729846 1.15251494339 1.1000472195 1.0663806071 1.05717776373 
0.667405141548 0.72304885317 0.780826938199 0.839323820431 0.902809643683 0.973154735246 1.04471721744 1.10561689311 1.14399438821 1.15452809476 1.14084768297 1.11289957461 1.08195222964 1.0570077329 1.04432612718 
0.649213768261 0.705548294259 0.762016062619 0.813438801805 0.859946738385 0.903382345085 0.94441414704 0.981772154214 1.0131259677 1.03619601116 1.04923346039 1.05123071216 1.04278820178 1.02778108902 1.01448004162 
0.600615135281 0.671295105404 0.7422230873 0.798874710406 0.834331823953 0.851002601536 0.85858622149 0.868936470871 0.890025484507 0.921903846138 0.956835784001 0.98379485482 0.995146144945 0.991902579827 0.984379975041 
0.547673175128 0.645670663062 0.743503679332 0.814372648204 0.844049785876 0.836897384027 0.81274315789 0.796135381048 0.803846255138 0.837436454853 0.884631599154 0.928081138106 0.955942714492 0.968094780804 0.974826020986 
0.516371727573 0.648283800834 0.777221246779 0.864871132873 0.891828987487 0.865628355991 0.815020917063 0.774123735844 0.765700323479 0.792701842802 0.841590509148 0.893712726364 0.936751804607 0.969481117786 0.998353394527 
0.52219442748 0.684405891763 0.838116865016 0.937737216061 0.962169518472 0.922309792574 0.852455243878 0.791549873168 0.765421786156 0.77925942806 0.822274466276 0.878950534474 0.93839498902 0.996464032023 1.05163407112 
0.565572157768 0.744000679856 0.906986208323 1.00802654835 1.02780619255 0.979399943701 0.898008360287 0.822511855871 0.779644312391 0.778204997475 0.813347354137 0.874911475647 0.952918480392 1.03759852684 1.11687250643 
0.634286587729 0.807949506011 0.960078531811 1.04981316282 1.0619731763 1.00958394751 0.924207562 0.840918691843 0.786212919497 0.773436270869 0.804642293242 0.87428109997 0.970944067017 1.07722477012 1.17103507293 
0.710633871295 0.85763354227 0.980028829573 1.04753160796 1.04988187533 0.99767039193 0.915699257202 0.833328091609 0.776281571609 0.761921000277 0.797255161748 0.878059468471 0.988736829734 1.1044272161 1.19720109069 
0.779474894174 0.883020071025 0.962944579284 1.00178263017 0.993735089794 0.945487604388 0.874180891301 0.803294836342 0.757114419289 0.754464788774 0.802879657853 0.895060154742 1.00965783935 1.11740134797 1.19139841271 
0.833685118401 0.885921397781 0.918906546003 0.927549971853 0.909662620726 0.868250740209 0.814116885939 0.765742088611 0.744543417132 0.766543187466 0.834321579071 0.933856036776 1.03877425373 1.12074918678 1.16143787913 
0.875303781722 0.877882543565 0.866747490937 0.846919437746 0.819484414234 0.785803500854 0.753122002454 0.735927237787 0.750484932143 0.805220067597 0.893212576197 0.99240584142 1.07452509976 1.11823943866 1.11939756275 
0.912707213795 0.874529298264 0.826417610796 0.780713576732 0.742432463697 0.714458166761 0.703486047456 0.720429541305 0.773834712561 0.860900524737 0.963390720097 1.05294728525 1.10396874652 1.1067910634 1.07325563563 
0.955488504928 0.889131523191 0.812456121425 0.742903250043 0.69082506696 0.663678608937 0.669617831244 0.715612691559 0.800671162543 0.909853327898 1.01544016717 1.08709636251 1.1063198383 1.07669323748 1.02335078385 
1.00915548789 0.927655316229 0.830521137077 0.73909571595 0.670357879231 0.637916004155 0.651630394767 0.713711352641 0.8136004006 0.926765272619 1.02112679521 1.06984843318 1.06418117014 1.01879762455 0.965854131432 
1.07151281545 0.986489921136 0.877002653124 0.767821369922 0.682617258281 0.640355942025 0.65106663413 0.711618218609 0.804182261568 0.900187196737 0.970042513737 0.995154313687 0.976414716659 0.934388900376 0.900586478524 

0.398274641543 0.489498165638 0.6289943075 0.787530199711 0.940945573462 1.07242814628 1.17054795904 1.22697196064 1.23697760605 1.20273035394 1.13631173417 1.05893308246 0.995039522663 0.963453367841 0.96990154575 
0.47788977033 0.574353604399 0.702214823882 0.840202340623 0.97570934488 1.10062114295 1.20493016024 1.27457168442 1.29614320863 1.26551778382 1.19398044504 1.10678663909 1.03395778002 0.998158281829 1.00619385397 
0.57223950558 0.662788370642 0.768895830975 0.878703020499 0.989674638842 1.10002452249 1.20068650904 1.2746353697 1.30460561885 1.28394255583 1.22293534399 1.14604321511 1.0815363933 1.0498125047 1.05683563431 
0.650719653753 0.728989063045 0.810575666453 0.891012477499 0.973924072536 1.06130713458 1.14630006032 1.21382269228 1.24850894765 1.24418954883 1.20837298822 1.15898301367 1.11598975099 1.09354798063 1.09690558032 
0.689759230473 0.757067973671 0.820120529443 0.87690404441 0.932169220441 0.989905902233 1.04815804628 1.09933587475 1.13496036634 1.15088108185 1.14933624943 1.13713371928 1.12220185508 1.11143411463 1.11078597484 
0.682270784398 0.747772376784 0.80550948291 0.849701424621 0.881678289346 0.906848101021 0.931284785452 0.959286398647 0.992140956058 1.02779014843 1.06133188478 1.08672562548 1.09982121643 1.10173567912 1.10045536713 
0.639408412665 0.716953420464 0.785496548538 0.830111113894 0.845974858769 0.840389238128 0.829681852057 0.831870724423 0.858286834333 0.908250104296 0.969651668918 1.02536906858 1.06232303562 1.078411218 1.08350738671 
0.584547685582 0.68712543342 0.779655867884 0.835389795434 0.843035394717 0.81264580617 0.771023059886 0.748632695597 0.764955485557 0.820134729134 0.897090618854 0.972239372934 1.02826350335 1.06177186288 1.0822707477 
0.542998486767 0.676851752668 0.79837300575 0.869947754835 0.875634230677 0.828638885007 0.764023574357 0.72081909535 0.723676400973 0.773889058674 0.853479488546 0.938189132395 1.01065412834 1.06633526852 1.11046997332 
0.532408847648 0.693271182691 0.838071997105 0.922627149102 0.929339053238 0.873897431301 0.79539669669 0.736224275971 0.723339893071 0.760503232786 0.833433050003 0.922073291484 1.01112427916 1.09316251483 1.16508175768 
0.55772640992 0.730843547981 0.883754681375 0.971976071962 0.979217718965 0.921817235569 0.837792839401 0.767896110173 0.739448817796 0.760369010817 0.823491716016 0.915265592615 1.02198124149 1.13074533094 1.22776557333 
0.611925186188 0.775915887882 0.91686996803 0.996359433688 1.00138872277 0.946442981612 0.863899985671 0.789316067558 0.749432037195 0.757307733692 0.813725837918 0.910735272795 1.03387382706 1.16300318579 1.27454812691 
0.681056467076 0.814025620508 0.924020312505 0.983398560361 0.983137279378 0.93361344507 0.85875167476 0.787278439301 0.744855651953 0.748910302594 0.805874244781 0.909904647654 1.04312770057 1.17869618043 1.28779295701 
0.750767138229 0.836220849651 0.902270845258 0.934216497108 0.926719606501 0.884984395091 0.823993517189 0.765634204391 0.733611560554 0.746729504379 0.812259368902 0.921991304626 1.05333692002 1.17618239468 1.26361391191 
0.811546718857 0.84197340028 0.859286193564 0.861353630122 0.846039199135 0.814070737507 0.773095138323 0.738951174548 0.731553100562 0.766359744704 0.845790359051 0.955763569409 1.07007245261 1.16100776297 1.21112579686 
0.861085269562 0.838324168576 0.809394721708 0.782699317164 0.759379446387 0.73805132163 0.721828918056 0.721197674782 0.749560338107 0.813962558924 0.907485168252 1.0091880976 1.09269593182 1.13884032983 1.14508171455 
0.903441665323 0.836445496198 0.768242481009 0.715261121802 0.682867476377 0.670812425125 0.680475312216 0.717051826926 0.784618600105 0.878228555004 0.980122966301 1.06458207213 1.10974151313 1.10939625325 1.07726247045 
0.945709593364 0.847246133431 0.748369786739 0.671504207758 0.627710921836 0.620775916786 0.652089265906 0.721032677938 0.820668254092 0.933539266285 1.03331331989 1.09398402395 1.10236490612 1.0662059699 1.0121823892 
0.993457831493 0.877288327735 0.756582917728 0.658524909229 0.600980608661 0.593115724288 0.636502523742 0.724147233491 0.838635387093 0.953178594532 1.03834324444 1.07314668753 1.05509004238 1.00290171108 0.949343126982 
1.04656133682 0.925851092781 0.792756815992 0.67842228759 0.607248633467 0.592868582986 0.635801258767 0.722822402586 0.829230864039 0.925112162339 0.98486236521 0.996724277395 0.967867499688 0.921950527493 0.889698920334 

0.411782538212 0.517687960718 0.665495359734 0.826540907377 0.977926635285 1.10395734158 1.19362698906 1.23848638166 1.23394038095 1.18339319594 1.10156380154 1.01309278945 0.94542430441 0.918811109731 0.93842772241 
0.504380863585 0.616360076965 0.752798029053 0.892921568668 1.02507696523 1.14208683578 1.23474214078 1.2899235759 1.2957645332 1.25045708141 1.1680516591 1.07622591576 1.00625461078 0.980514427337 1.00427858128 
0.609396542199 0.715119693772 0.829096910713 0.939638131994 1.04476376504 1.14369481245 1.22905310113 1.28630893727 1.30127051223 1.27029488602 1.20578866482 1.13280501613 1.07860825077 1.06154592067 1.0853995165 
0.697969168404 0.789871273382 0.877171296811 0.955133434473 1.02777373248 1.09870479548 1.16422408031 1.21358413738 1.23582396109 1.22784877968 1.19788129707 1.16207405284 1.13699954366 1.13321176078 1.15345284576 
0.74723768813 0.825601816025 0.890680672876 0.939873137962 0.978635191466 1.01378491547 1.0483779233 1.08091401745 1.10813350354 1.12834564334 1.14261478989 1.15353141013 1.16350943268 1.17467255399 1.19037089761 
0.748853103521 0.821997435211 0.876867364235 0.907108766802 0.915607733491 0.912203904239 0.909792892248 0.92001420316 0.949482685541 0.99746671046 1.05594838007 1.11262950708 1.15632780557 1.18266841552 1.19702135219 
0.71102184561 0.792073729971 0.852241064887 0.876493540232 0.862792250704 0.824439528297 0.785846050896 0.772778998246 0.801288067128 0.870674437454 0.964163519949 1.05710968282 1.12864636522 1.17087999196 1.19104981731 
0.653930641096 0.75517834673 0.833871948584 0.864059409361 0.838513384408 0.77434168171 0.70673973688 0.673353601533 0.697230462269 0.777279981264 0.890912717992 1.00667875161 1.09946319071 1.16013430884 1.19552490716 
0.601338366062 0.728377576698 0.831221089507 0.874219553211 0.846467301732 0.76840997897 0.682715806966 0.634174698167 0.649596365632 0.728218552228 0.846505076189 0.972817423726 1.08257207469 1.1658154362 1.22512077342 
0.57227445442 0.720431691489 0.842729185221 0.898137674537 0.874491611106 0.793943615913 0.701474647183 0.643289320967 0.647145014771 0.71441373885 0.825858074704 0.955088485423 1.08053714929 1.18992642023 1.27765635021 
0.575946087593 0.730549671443 0.858340441308 0.918963576484 0.901310234432 0.826645231347 0.736629614926 0.673783896866 0.665120679606 0.716241573703 0.815979889202 0.945734507747 1.08667117516 1.22183678891 1.33537346674 
0.610978224987 0.7513689508 0.865790397451 0.920559590862 0.907109318736 0.842967277384 0.761879669812 0.699358395055 0.681028050707 0.717883157071 0.807682892474 0.938695630265 1.09257782371 1.24618160155 1.37457726272 
0.668209121224 0.773772474066 0.856843951916 0.894788297408 0.882054615298 0.830286743621 0.762864558111 0.707041527456 0.686738977923 0.717488907433 0.803470081229 0.936212629945 1.0953088944 1.25221168726 1.37766982528 
0.735259575415 0.791022539415 0.830460360142 0.843928164953 0.828733596016 0.790015293815 0.740816872885 0.700436313218 0.690186449204 0.726877704034 0.816031710746 0.94790186913 1.09886825084 1.2386294026 1.34080418596 
0.801065750707 0.800859714225 0.792204986959 0.778076983734 0.758528033891 0.733431061817 0.707516328254 0.693004451005 0.706548595218 0.761210908416 0.858009121175 0.982489141563 1.10909046758 1.21148987267 1.27357977691 
0.859064704412 0.805588793583 0.751388409533 0.710215149487 0.685370248587 0.674226617525 0.676148657719 0.696825006441 0.745251360734 0.825503390733 0.929662682499 1.03776801346 1.12586619892 1.17759098459 1.19218233724 
0.908279644566 0.810840002157 0.718054666431 0.652205230819 0.621080449547 0.622910555498 0.654358316717 0.714393399459 0.801390304786 0.906942768826 1.01294350428 1.09618532883 1.13889869765 1.13868538622 1.1109960817 
0.952042889307 0.823537017324 0.700985727414 0.613335137726 0.574358602388 0.585870407837 0.643320431731 0.738308345004 0.857043262692 0.978476754583 1.07690268832 1.130379087 1.13109620627 1.09098382003 1.03789255753 
0.994692305842 0.849233420534 0.706429354966 0.600579687123 0.552297993414 0.568018894734 0.642016819501 0.758166045956 0.891550457938 1.01219145129 1.09248597755 1.11680000445 1.08861862954 1.03047721491 0.975322839151 
1.03739228982 0.889088473987 0.736622928094 0.618475128207 0.561403087689 0.575331768384 0.65233234053 0.769327830247 0.894248832978 0.994925428864 1.0487735888 1.05009438675 1.01180320529 0.960292114883 0.925223654301 

0.474488858418 0.589430421189 0.736995298684 0.89108521025 1.03200478257 1.14673618251 1.22569919756 1.26069190317 1.24693423274 1.18807415067 1.09985606457 1.00832275993 0.941844079698 0.920474747444 0.948143677316 
0.579149441449 0.700822197248 0.83788329773 0.971424576987 1.09190889659 1.19404757036 1.27024768163 1.3090338228 1.30051696969 1.24513626829 1.15888692278 1.07025690426 1.00962697936 0.996936817293 1.03443927978 
0.692339621037 0.808020102465 0.923123367381 1.02682579709 1.11815293825 1.19777451488 1.26069127414 1.29587437744 1.29330055147 1.25307819305 1.18965407137 1.12753884787 1.09092961432 1.09365744993 1.13521103725 
0.787673636169 0.889046260416 0.976781890155 1.04598554646 1.10095698029 1.1469926914 1.18414545509 1.20721237389 1.2111928751 1.197417634 1.17536853798 1.1587725866 1.1589581945 1.18029612816 1.22049550774 
0.844074855573 0.930345359792 0.993390197934 1.02973970107 1.04512461869 1.04904777693 1.05009187648 1.05411980882 1.06485816748 1.08477583555 1.11474118498 1.152890902 1.19456103066 1.23457707405 1.27095870009 
0.85285907004 0.93099086436 0.979437528442 0.990875100727 0.969262850635 0.928683157525 0.889291386265 0.871246957184 0.888207675482 0.942529692868 1.02425498116 1.11488277885 1.19492569138 1.25217664605 1.28668877743 
0.819634032576 0.901217529499 0.949000648799 0.947621413497 0.897540154639 0.817967901374 0.741755973793 0.703363235249 0.724986072465 0.807455626057 0.930460581021 1.0620225312 1.17247825174 1.2461024825 1.28504254423 
0.761002524626 0.856803959154 0.916321059118 0.914566023039 0.84847077619 0.742295837435 0.639897992879 0.586703159206 0.610280540422 0.709418300564 0.856887465384 1.01355603506 1.1457419969 1.23693957968 1.28929796628 
0.698211308882 0.812640280641 0.889631790228 0.896183185392 0.826977957076 0.710023511961 0.595759830317 0.534928014391 0.556864907692 0.659278942089 0.813541803193 0.980723466742 1.12849734264 1.24037684455 1.3148777206 
0.650595700692 0.778509998456 0.869331753687 0.886378163454 0.823906803648 0.711064776003 0.598774442118 0.536827481162 0.553522131319 0.647723534221 0.795242871848 0.963329254454 1.12390934099 1.25933970822 1.36085499002 
0.630962079366 0.758233773201 0.850687204614 0.873688958152 0.822651345013 0.724469183828 0.62440411231 0.566134012332 0.575521701742 0.655117998949 0.78932438879 0.954381752571 1.12642649742 1.28458222877 1.41098455097 
0.643711374085 0.751283749843 0.828595778726 0.848533789438 0.80853682318 0.73002439211 0.648025774234 0.597118033191 0.600503384945 0.665872450448 0.787186156231 0.948801634912 1.12893322303 1.30215955424 1.44288132267 
0.685412113005 0.755046794031 0.801209733347 0.808151710905 0.775521443461 0.717241714739 0.656125665577 0.61694878724 0.620305108724 0.678258486535 0.7917344617 0.949519861898 1.12939127595 1.30227804422 1.43959456364 
0.747077586725 0.766398679636 0.770609855093 0.756913972438 0.727100777695 0.68748321051 0.649360791612 0.628534336203 0.642286164347 0.703722037928 0.815499030238 0.966214578111 1.13205876383 1.28390312625 1.39713716888 
0.817390244118 0.782427523062 0.741035464109 0.702913293422 0.672252078569 0.649632791273 0.637454285685 0.643734362329 0.680411074645 0.756485674524 0.870416114108 1.00717190199 1.14257914373 1.25294341398 1.32459429053 
0.886113466115 0.800928524774 0.716693626771 0.653915178764 0.620142233099 0.613477488575 0.630659722486 0.672512410128 0.742549747927 0.840395358746 0.955945899195 1.06980315853 1.16083463385 1.21632980679 1.23807167872 
0.946749915702 0.821098018227 0.700908785421 0.6155068664 0.577338420382 0.585531135033 0.633769155917 0.715353976348 0.822372870807 0.941717900915 1.0536834449 1.13681274715 1.17730047853 1.17685471662 1.15301576013 
0.997405401072 0.844017387664 0.696736641464 0.592009647348 0.548666049038 0.569362874355 0.645929927683 0.763361010776 0.900913419807 1.03291604436 1.13290669874 1.18180604887 1.17644562107 1.13266807734 1.07952026174 
1.03924695656 0.8719704524 0.707580158523 0.588251058695 0.539705888543 0.568721357127 0.665032461015 0.805046489598 0.95662086841 1.0856721811 1.16484642611 1.18220296546 1.14593250261 1.08168319755 1.022459765 
1.0730479577 0.906111806377 0.736159958811 0.609524176844 0.557563419089 0.589624033088 0.692298808124 0.834593416225 0.977536431008 1.08578445856 1.13796487847 1.13241081603 1.08614559222 1.02741284256 0.984760063912 

0.581033476349 0.696942275656 0.834972440375 0.973294081236 1.09689788162 1.19652007671 1.26460305631 1.29327756774 1.27710534121 1.21888833713 1.13369214126 1.04679623579 0.985224278562 0.966975819014 0.993854804275 
0.693187547111 0.815828762643 0.944710573177 1.06394277197 1.16680739266 1.25025637192 1.30850718325 1.33187954176 1.31250222308 1.25276347959 1.1697179024 1.09109564986 1.04431399281 1.04477102003 1.0901966561 
0.809194194846 0.926595357216 1.03542657575 1.12625562945 1.19905827553 1.25564806224 1.2932430377 1.30452364003 1.28414278106 1.23642757382 1.17785138153 1.13156804034 1.11707080903 1.14155509672 1.19824438663 
0.906116910651 1.01014712662 1.09296057084 1.14943410626 1.18345627029 1.20116269178 1.20588755467 1.19818507676 1.17987577797 1.15784373913 1.14366047448 1.14864637987 1.17785088959 1.22753263294 1.28810275455 
0.965912062208 1.05516279368 1.11297459885 1.13450069381 1.12461914426 1.09429640791 1.05690589009 1.02581232369 1.01277736749 1.02603693804 1.06780848093 1.13259108996 1.2082753793 1.2807976405 1.34048104741 
0.980623657591 1.06060246316 1.10113553637 1.09322579728 1.04061184549 0.960215845365 0.87851714046 0.824180865999 0.818956094083 0.87013389292 0.967849576221 1.08885805302 1.2056238269 1.29694126607 1.3552804782 
0.953671498594 1.03387404027 1.06863381225 1.04163472459 0.954649390362 0.831410579563 0.712150792213 0.639792218194 0.643542082372 0.727581334095 0.870293336732 1.03422629465 1.18168105801 1.28840293925 1.34948653831 
0.897573480762 0.986488176355 1.02608657365 0.992038817184 0.884580149131 0.733921995207 0.5914794445 0.509982867143 0.522049772176 0.627884241949 0.797744493858 0.986808850234 1.15394442671 1.27506860398 1.34618939718 
0.829746667717 0.929951417102 0.979531181741 0.948276187584 0.836066525976 0.677570430701 0.529927496794 0.449106380641 0.467055462686 0.581004959024 0.758998395278 0.956706022065 1.13540168509 1.2723818968 1.3613172211 
0.768148373239 0.87374158386 0.930467029024 0.90659629033 0.802907203726 0.65499646839 0.518751631069 0.44661212182 0.467020055689 0.576777833794 0.747977295036 0.943140677735 1.12917487008 1.28392078512 1.39543162413 
0.727782371529 0.825346608229 0.879052434376 0.860949753046 0.773496875348 0.649038783659 0.535620301911 0.476993200296 0.49702773383 0.595041943435 0.75164496356 0.939226481088 1.1304701999 1.30193920983 1.43452058575 
0.718290595941 0.790936605709 0.827577642062 0.808802216238 0.738899858707 0.643360091228 0.557914061898 0.515094976816 0.534509348084 0.619818458193 0.761270314403 0.940282313772 1.13324141782 1.31423496192 1.45840781984 
0.742564669239 0.77521167805 0.78149518619 0.753654628141 0.697596321306 0.630067829251 0.573079145494 0.547963520295 0.570672475902 0.648698196614 0.779348344044 0.949314703299 1.13611633619 1.31217334848 1.4514028321 
0.796525337088 0.780160728911 0.747342944755 0.70302801596 0.654693705774 0.610786275904 0.581113496773 0.57737257737 0.611597749066 0.691920060812 0.817441807814 0.975419346226 1.1431959807 1.29479045705 1.40931694344 
0.87041623122 0.803809921065 0.729288486308 0.663883127884 0.617263526294 0.592167454503 0.589564846512 0.613248241876 0.669570098839 0.762244267758 0.886255040435 1.02592313911 1.15937970376 1.26718428984 1.33986288549 
0.951642221295 0.840397407824 0.72702192579 0.639060939099 0.5898078084 0.580111085444 0.605774832278 0.663508856207 0.751027661121 0.862479771117 0.984491490891 1.09767886346 1.18401077685 1.23543833448 1.25761384824 
1.02836188058 0.882448478251 0.736639947046 0.62729405883 0.573193227475 0.576980195655 0.631902715112 0.727216050601 0.849061215059 0.978881995917 1.09411560357 1.17394185453 1.20801451329 1.20238196989 1.177465743 
1.09230695724 0.923670670461 0.753826495567 0.626477557884 0.567363813672 0.583154115026 0.665394303064 0.794922547311 0.945017312243 1.08488794298 1.18584719795 1.22995946161 1.21738502377 1.16735888113 1.11043954944 
1.13938161489 0.960697123492 0.776792784209 0.637303979804 0.575028701339 0.600652348685 0.703304869116 0.855011148884 1.01784512426 1.1532629599 1.23244456438 1.24486915934 1.20144781519 1.12985627425 1.06318748415 
1.16774112542 0.992307801512 0.806499006447 0.663958558492 0.602604343171 0.63492212349 0.746246289635 0.901068786026 1.05517263143 1.16968276533 1.22248192335 1.21326586948 1.16078146064 1.09378408059 1.03970359615 

0.71173600278 0.819994876164 0.940640674956 1.05719226809 1.16001794178 1.24389679804 1.30325607452 1.33026341047 1.31826124059 1.26830225361 1.19345937609 1.11656826318 1.06148420604 1.04258608555 1.05872667266 
0.822269971199 0.936437013488 1.04987816086 1.15042557493 1.23421341304 1.29999092293 1.34316879715 1.35530653809 1.33011086872 1.2714649047 1.19680367505 1.13205197773 1.10028718789 1.11092260742 1.15608978282 
0.932226412045 1.04234512439 1.13926779887 1.21518401442 1.27038111922 1.30667006704 1.32231247477 1.3128807263 1.27738073273 1.22439625429 1.17251600282 1.14334687155 1.15101566491 1.19499194803 1.26102348078 
1.02338952108 1.12269892354 1.19740972783 1.24191468221 1.25844930251 1.25222482811 1.22817641703 1.19153503339 1.15071209856 1.11867848535 1.11002066638 1.1344588593 1.19099259358 1.26719692753 1.34494469225 
1.08217526525 1.16944668956 1.2216458132 1.23189904381 1.20254468082 1.14378227122 1.07167709036 1.00576413786 0.965659954779 0.966337219786 1.01308361211 1.09856021365 1.20437118128 1.30758601925 1.38966227039 
1.10252328932 1.18204400967 1.2168276458 1.19534322981 1.11920616569 1.00568704159 0.8852034214 0.793378288603 0.759863996227 0.798163200109 0.900853518626 1.04257466499 1.18972217001 1.31269645004 1.39539329702 
1.08609215523 1.16497171392 1.19065956962 1.14503951495 1.02933822428 0.869294737209 0.710016409659 0.601185451714 0.578759347806 0.651664652458 0.799680337913 0.983045636468 1.15860224387 1.29468286429 1.37863553519 
1.04066847541 1.12450527123 1.14894933752 1.08970227534 0.948723245768 0.75986394362 0.579650784792 0.466340423953 0.457203865205 0.555160334843 0.730676929682 0.93658405295 1.12720095134 1.27240741568 1.36180311428 
0.978130480432 1.06702764735 1.09392898003 1.03113408655 0.882577655685 0.687665113219 0.508014489799 0.403058031741 0.406780504299 0.516935334916 0.70066325361 0.911413096817 1.10703525846 1.26049132654 1.36088626023 
0.912710568898 0.999591760467 1.02648517144 0.966682738758 0.826831589429 0.647551205437 0.487830794057 0.401096780876 0.415164027954 0.525332661236 0.701866154623 0.905317804099 1.10043413654 1.26270248354 1.37789951959 
0.859359186257 0.931465295073 0.950285238498 0.89485737987 0.774477509407 0.626046129905 0.498977315865 0.435628889311 0.456942671838 0.559071763315 0.720071145419 0.910675156848 1.10273919244 1.27264403001 1.40155864173 
0.831585523568 0.87448358721 0.874377444514 0.819909881929 0.722336787563 0.610838173404 0.520947659014 0.48198099294 0.508940134053 0.601085901603 0.745545646393 0.922393972296 1.10850667198 1.27997549885 1.41474056922 
0.838614355909 0.840858594159 0.811857217215 0.752019573796 0.673812271901 0.596910273087 0.542197366135 0.526812168853 0.561137838745 0.647432930295 0.779437242055 0.942771698714 1.116634843 1.27738956298 1.40381553767 
0.882660544559 0.839053271796 0.774933403702 0.702835884094 0.636307228911 0.586497062274 0.562053502948 0.57039644309 0.617675300304 0.706301349682 0.831479936423 0.979615066053 1.13065795651 1.26395668862 1.36473147326 
0.957731078111 0.870007538853 0.769316390965 0.679382568415 0.6157624875 0.584407364328 0.58594271658 0.620512881037 0.688757717404 0.788491073972 0.910631085264 1.03881351766 1.15430722193 1.24358066908 1.30345775091 
1.05097533615 0.926146006047 0.791494149867 0.680486498888 0.612605098221 0.593029120708 0.618555600116 0.68325496999 0.779606308258 0.89597018472 1.01495256381 1.11659848337 1.18604497957 1.22080874741 1.23199354972 