# vtk DataFile Version 3.0
vtk output
ASCII
DATASET STRUCTURED_POINTS
DIMENSIONS 15 20 65
SPACING 1 1 1
ORIGIN 0 0 0
POINT_DATA 19500
SCALARS Image float 1
LOOKUP_TABLE default
1.34279457546 1.20662538466 1.06743506947 0.978361852033 0.880911082922 0.741435174603 0.649793753521 0.694894412564 0.816633484898 0.884807404643 0.884629280542 0.917852700265 1.03192794737 1.15463476731 1.21831701775 
1.29054843484 1.12033068161 0.94659278351 0.827677517561 0.72015330883 0.581871788478 0.481049656612 0.513473374067 0.646446606139 0.746760194996 0.765511913194 0.796549789853 0.917940178929 1.06635758386 1.13871683007 
1.19588720151 1.01910877124 0.845292632406 0.706458229921 0.579286759768 0.440879436652 0.347586938578 0.388417390889 0.550113774273 0.703237867462 0.761784148477 0.788494120538 0.876784705135 0.989837914482 1.02187837391 
1.1042386341 0.973065403376 0.834724404981 0.673526123254 0.500013394619 0.344967355829 0.268860449423 0.341014040046 0.554136864937 0.786317100444 0.915048508032 0.951100342169 0.983715475963 1.01562591385 0.969984018239 
1.03684059995 0.992931017816 0.907175072318 0.72099169013 0.492744973126 0.322679222584 0.277547454389 0.391354269733 0.650182929751 0.948988924085 1.14605781066 1.1995708776 1.18141858962 1.13448552123 1.02267883608 
0.998096630257 1.03597227203 0.98988443097 0.789266719291 0.540667046567 0.393766416723 0.401874459019 0.548982022496 0.809130858929 1.1102927996 1.32499754192 1.38212702203 1.33397878397 1.25075149425 1.12647752488 
0.983168311218 1.0461751513 1.00194159 0.80853520605 0.601438103902 0.531919266313 0.612814212747 0.776047203403 0.986714180901 1.21683605339 1.38342735882 1.41818280982 1.35905795387 1.28417166814 1.19822278804 
0.975866067425 0.994394761381 0.913923748747 0.748638077046 0.630398819351 0.663855385754 0.81220717725 0.975999345029 1.11941028889 1.25057115639 1.33694017359 1.33473465659 1.27433294891 1.2250425013 1.18932433036 
0.956120539088 0.896820164582 0.770380007044 0.645781591012 0.61823651193 0.722269095616 0.892762376031 1.03926070369 1.13336525452 1.19244049504 1.21395711901 1.1832598946 1.12833281656 1.10024417013 1.09682459793 
0.916936556914 0.800114017495 0.654714967091 0.575871211036 0.600686814924 0.700904203938 0.822852158245 0.926333736602 0.995532469311 1.027166591 1.02032109035 0.984330695451 0.9480766744 0.940673863262 0.956997533417 
0.872834013306 0.747750486601 0.627059106143 0.594451728543 0.627149573539 0.660829433477 0.684072439392 0.724552355137 0.778219751397 0.806896219146 0.796655638471 0.775835133693 0.775038713103 0.799724404402 0.841269930018 
0.852391490643 0.757729078912 0.68969637838 0.697201888134 0.717870830586 0.680964592393 0.617847015745 0.604516407482 0.640916017468 0.663237702049 0.651972722222 0.652185472429 0.692674367526 0.753959349548 0.821167840326 
0.874855140359 0.816459275914 0.794113362303 0.823909172927 0.839464198294 0.785352299397 0.706511654996 0.679397356977 0.696971581606 0.697040471602 0.676057151434 0.691752571772 0.761989467636 0.842404628894 0.910190129963 
0.91981361122 0.877579631788 0.86871554247 0.89413539741 0.917836951937 0.910961910416 0.894682564345 0.897022830687 0.897264841508 0.866043380694 0.835426814412 0.865058126219 0.949201851976 1.02204614442 1.05437282232 
0.928128037328 0.883435859234 0.863537595778 0.865608086214 0.898989963464 0.965809281166 1.04556447657 1.09592716136 1.08415282909 1.03233163554 1.01195469923 1.06773361417 1.16045831339 1.21214536171 1.19289326702 
0.862170458856 0.823664551346 0.804483183761 0.788524578686 0.818745394971 0.931791201401 1.08209151351 1.17207947952 1.16213145006 1.1195237863 1.13925666583 1.23598676756 1.33779410019 1.37029665102 1.3126840947 
0.76736708252 0.770364803719 0.795384228436 0.787440281539 0.793412350887 0.890074280992 1.05038817681 1.1606685121 1.17354576035 1.17071799396 1.24504472674 1.37924038373 1.48331728385 1.50289788538 1.4350420209 
0.737466724209 0.812856896508 0.92142872122 0.946553020137 0.908082288295 0.926390846042 1.03795121482 1.15116615273 1.2004623633 1.24301183488 1.35293565017 1.49956971796 1.59727193456 1.61588997311 1.56766916945 
0.802722582436 0.943535211816 1.1378613974 1.20396496605 1.11548497107 1.02922904528 1.0644751604 1.16957010263 1.24760741535 1.30642173916 1.40692479012 1.53914266042 1.63959527478 1.68496739037 1.68251910043 
0.887395917539 1.04632995111 1.28820358596 1.38608182717 1.26619350496 1.10117274496 1.0759140294 1.1724457496 1.2572374125 1.28884545766 1.33670344443 1.44364820483 1.57299813127 1.67671231593 1.72945548072 

1.15801484271 1.01088473587 0.919952032758 0.913875040787 0.904036726756 0.841976876856 0.812349171238 0.889838864459 0.996605264023 1.01347246924 0.973735692717 1.01870269481 1.18026569811 1.33553361622 1.39275727987 
1.03616801655 0.872506388641 0.77199807654 0.755415204764 0.740112629253 0.669162846965 0.609386615605 0.647257429063 0.742917516566 0.788885844994 0.790618737945 0.871971694934 1.07868897854 1.28470388249 1.35710233384 
0.919000340413 0.760502219222 0.664767005304 0.620178663665 0.566582839184 0.475704464922 0.40842644444 0.444178183547 0.564901141676 0.67365172748 0.737919731396 0.83669087081 1.01834770591 1.18467599538 1.20793971243 
0.868849614297 0.757940360711 0.680231342039 0.581839844 0.448234669401 0.317625577534 0.260310920024 0.332564121987 0.517927496496 0.724462574233 0.875470037843 0.984813718357 1.09209495418 1.15059464799 1.07606713277 
0.884000284433 0.851845747992 0.792612102592 0.626217474613 0.402258599106 0.238351952663 0.213418485705 0.344417725209 0.600621016103 0.896820692217 1.12499918169 1.23826379555 1.26389784382 1.21238487236 1.05336412246 
0.928278265496 0.961171454169 0.901773288284 0.681194626805 0.412339369845 0.264817036138 0.301925745224 0.487950539609 0.772867064834 1.09043477656 1.33395153924 1.42708814164 1.39213286186 1.28453806953 1.11059863377 
0.969173733649 1.00631372178 0.915137728221 0.677602663882 0.444757242925 0.381379343063 0.503105081368 0.721508996742 0.97387743174 1.22470476365 1.40133370058 1.43836532689 1.36578642396 1.26285700167 1.14580116938 
0.981171037446 0.953147307276 0.806689014849 0.594246116004 0.464765090144 0.522913293888 0.723427831255 0.947612211047 1.13345383474 1.27275444065 1.33637740165 1.29585399019 1.19802820841 1.12626792387 1.0893133025 
0.946620477096 0.825343624729 0.63129014189 0.475114279713 0.465048210847 0.619944120557 0.853260541631 1.05750653879 1.1852601445 1.23482221765 1.20189182743 1.09669456752 0.983403567652 0.935984539141 0.952461409124 
0.87789257783 0.694950113201 0.494925121438 0.408569310424 0.481046180129 0.656518352717 0.848753445474 1.00377356547 1.09855144185 1.11362203094 1.04005040103 0.912172903854 0.804021565092 0.771475334088 0.805043103146 
0.826429527395 0.646614637534 0.491920578899 0.470339510045 0.565396999021 0.681568827915 0.76950441934 0.848572697003 0.922607467767 0.943955774255 0.881628750037 0.777398718508 0.703741487469 0.692483678194 0.728359350145 
0.848075059691 0.724943114593 0.644268288302 0.666627027701 0.738102585371 0.762331266843 0.736003180807 0.735925247205 0.785876443063 0.819814634551 0.789294292364 0.733079217703 0.710962958813 0.728758795989 0.76556406302 
0.94999712858 0.897783377526 0.881852112306 0.91843514572 0.952679449929 0.915087964113 0.827817836209 0.780540969876 0.802552571454 0.832435298237 0.824175327389 0.808995020307 0.826123355706 0.860183136671 0.887085572539 
1.06994662885 1.06436901513 1.07681826264 1.09965393102 1.10797619157 1.07041753321 1.00246277135 0.958374895747 0.958044947553 0.967660576938 0.963892626049 0.967443838141 0.993408074708 1.01652795465 1.01518658589 
1.11590246516 1.11728447229 1.12321443897 1.11840064216 1.11627845544 1.12189049572 1.12599995469 1.12317477546 1.115863887 1.10852347926 1.10822784241 1.12072243623 1.13739815712 1.13661152264 1.10518120275 
1.04748380524 1.0318051373 1.0251223683 1.00106164544 0.992686821698 1.03506683093 1.10612023882 1.15281688007 1.15990866895 1.16160138045 1.18656612679 1.22140463937 1.2381447405 1.22900414416 1.19238165114 
0.926714524596 0.903718958 0.912871638526 0.896426057346 0.872724521166 0.902624246048 0.987952947386 1.06597895692 1.10538479235 1.14498948791 1.21746004999 1.29293774678 1.33286928181 1.34568987376 1.3390600424 
0.86479941993 0.865732060766 0.931162366433 0.951971922918 0.900829812191 0.861871903528 0.898952301642 0.978066831637 1.04975954049 1.1287730352 1.24061096975 1.35504719243 1.43528287563 1.49696399729 1.54604265148 
0.899931535403 0.942979730483 1.08349189366 1.15818642214 1.0809606194 0.952047531373 0.910335741944 0.967009166911 1.04943280876 1.13210980478 1.23901766122 1.36719845714 1.49371362615 1.62193859008 1.7367787167 
0.952297810248 1.0185005747 1.21217883486 1.33618797726 1.25585372696 1.0723939225 0.976702093596 1.01338283081 1.08386323003 1.12505864454 1.17569332038 1.28533379499 1.45251636687 1.64853100917 1.81971443436 

0.967306623493 0.845087756645 0.819884210891 0.901345864447 0.987028029561 1.00999756306 1.03255524404 1.11863925508 1.19944077845 1.17572005579 1.09736072007 1.1118067372 1.24929071237 1.38479184633 1.42651486737 
0.805248408974 0.692098197576 0.683393684875 0.76948426667 0.849604515794 0.854664443933 0.835430322596 0.867608268375 0.92293022747 0.925160431494 0.904390604658 0.982044743565 1.18483638139 1.37678257983 1.42902173829 
0.68708155004 0.591722522931 0.592988287128 0.645983089403 0.675249983818 0.649768362036 0.619157505129 0.646561243911 0.721263336381 0.78413585562 0.833980123347 0.940516881821 1.12100265995 1.26775171081 1.26729191351 
0.6765099016 0.626673056515 0.631962320474 0.612350486661 0.544462747949 0.470665328648 0.451774943643 0.52042237171 0.659428694046 0.815282770357 0.946580670911 1.05555720171 1.14703152537 1.17136988387 1.0698891107 
0.746297325682 0.762242329992 0.760902100324 0.649672626745 0.475187882286 0.360886522346 0.376543083471 0.511587740633 0.726895875135 0.970115873876 1.16761346694 1.2621815767 1.25009930172 1.1474957023 0.95794137815 
0.831881748144 0.895445072182 0.867541589003 0.680875379101 0.447941286634 0.341249357137 0.416468186499 0.613572119048 0.869994907765 1.14143409205 1.3482801856 1.40654650729 1.31599741318 1.1450511832 0.937631672994 
0.898540261133 0.950806969471 0.871329215563 0.652720378985 0.444206446915 0.408221549038 0.556549298789 0.786775166324 1.02458448106 1.24306882549 1.38428080705 1.37755233383 1.2409677761 1.07145707304 0.921855599182 
0.938051154457 0.914527420923 0.769833986316 0.568498621608 0.453575229783 0.521881247011 0.728711890618 0.955166230391 1.13356306137 1.25287280449 1.28479087694 1.19710937079 1.03549850152 0.903185746395 0.840687612135 
0.937487516192 0.814356909209 0.62075457225 0.474614562431 0.474260742538 0.62613290023 0.846017021175 1.03794924815 1.15787340427 1.19497781077 1.13369683719 0.980582603124 0.807756479006 0.709739617276 0.709334853635 
0.89391951722 0.705443620244 0.509370249613 0.436929489636 0.522350944107 0.694570707828 0.866697274789 1.00178700791 1.08939544382 1.09996919164 1.0037664581 0.828880753704 0.663627595181 0.585256497183 0.602149841647 
0.8499402444 0.662965688183 0.51550466819 0.51128331381 0.626378602385 0.750063504829 0.826332457479 0.891110798537 0.967892352969 1.00035115633 0.927810877551 0.779472827231 0.645605290418 0.582271837654 0.587575822065 
0.874790154986 0.745541254813 0.671163676127 0.706618798054 0.797412234576 0.835993364763 0.808933864352 0.80792217798 0.88040011221 0.950882821657 0.930065834008 0.834300047304 0.7435183721 0.694641697959 0.679766783686 
0.993255332964 0.940559306748 0.926685404553 0.962831415668 1.00016218305 0.965720533064 0.876194543969 0.838973654943 0.907684786211 1.00440595345 1.02736795804 0.974864703808 0.91071012576 0.862815012029 0.824347430209 
1.14388442194 1.14896554536 1.16135916847 1.16905599714 1.15490096705 1.09222850304 1.00465646616 0.973733243542 1.04087675612 1.14141397047 1.17998311865 1.13841741691 1.06608667388 0.997513592338 0.935428257398 
1.22180088243 1.2447635539 1.25291184143 1.22761464425 1.18364999453 1.13346759376 1.09307304998 1.09815859808 1.16736195238 1.2565370729 1.28901287431 1.23520897156 1.13559662785 1.04401429622 0.976837121275 
1.1731753119 1.17669955027 1.17251340006 1.13474101748 1.08308417118 1.0517719849 1.05615048002 1.09791630428 1.17326166135 1.25419004287 1.28437927306 1.22863192162 1.12270350029 1.04097318221 1.00891499756 
1.05059665497 1.02178640213 1.02310365558 1.00623701415 0.956633765086 0.91393882912 0.918671710072 0.972969270304 1.05701673864 1.1445585046 1.19361076457 1.17047328474 1.1070653109 1.08559724897 1.12815130492 
0.96222294678 0.916590730383 0.953305959406 0.986770667389 0.938707958013 0.844474567622 0.79655281915 0.831475251832 0.918407843307 1.01604292842 1.0919711839 1.12609240163 1.14690643592 1.22262944527 1.35495718887 
0.953896045989 0.91365305618 1.00318066445 1.09971111998 1.0564653826 0.898950754485 0.777352445217 0.774393488186 0.84835903073 0.933833126766 1.01177179512 1.09361756712 1.20840672099 1.38916216669 1.6007315259 
0.960205704627 0.925669443954 1.05320764504 1.20274182619 1.18151435619 0.999436913233 0.839086644418 0.812330046146 0.864078935419 0.907554011233 0.945478717383 1.03644758264 1.21850963519 1.48107120061 1.74507421322 

0.882129027314 0.833575484578 0.874573546427 1.01246791696 1.15539209084 1.22388240741 1.25629001809 1.3220444868 1.38573241126 1.36136984013 1.27049986235 1.23117534066 1.28809716734 1.35959754017 1.37301980122 
0.729145193364 0.702959256905 0.769183303355 0.910338735107 1.03800718168 1.08108202135 1.07170138236 1.08397529134 1.11744579981 1.11764373948 1.09648382341 1.1385166959 1.26656146393 1.38323753275 1.3917312097 
0.614518282928 0.600160896709 0.670059018825 0.773087482333 0.847274358305 0.864570361787 0.85566537533 0.870452660744 0.916982627743 0.966245321959 1.01368384969 1.09174423374 1.20109619037 1.27042585428 1.22988245466 
0.592636223037 0.602951969442 0.663247965951 0.694291051315 0.682757836714 0.669369282569 0.690394974722 0.753998980751 0.853120406562 0.971197073983 1.08008777207 1.15224578289 1.17131235643 1.12299749539 0.998999625943 
0.632480130009 0.684677638122 0.727697487779 0.676599707553 0.578368750462 0.542971321659 0.610490880216 0.742159071269 0.90445290549 1.08459415907 1.23417522566 1.27654781782 1.18781261427 1.01768204622 0.822157752707 
0.678579613773 0.763803413325 0.779113922034 0.666080832129 0.523829084305 0.499540744229 0.621464691657 0.809532638432 1.00769476339 1.2069083266 1.3537893652 1.35132977678 1.18151272584 0.942882658621 0.73127472291 
0.726472426295 0.801834896417 0.77401740176 0.637894700557 0.516380914298 0.54151303826 0.709909717701 0.917760374063 1.10262426267 1.26201980462 1.35324737378 1.29184905358 1.07933771428 0.837766054108 0.66998556862 
0.802700851623 0.816434156472 0.734954931433 0.613116239375 0.560196777117 0.646506158523 0.830166461732 1.01300253496 1.14682094508 1.23213208121 1.23844618236 1.11384774088 0.887694690352 0.682729478938 0.585464757748 
0.893385152386 0.822459233257 0.697341811987 0.614866580682 0.64017806342 0.762956370242 0.916722277176 1.04234191848 1.12219979745 1.14750866295 1.08464521433 0.914266559517 0.693684453609 0.53250982963 0.492504450488 
0.945470626234 0.812406820167 0.677602496539 0.646258511847 0.727765333278 0.844414803634 0.931139091566 0.990878433389 1.0428063524 1.0554444303 0.97149092438 0.790343433221 0.59054954919 0.463735953087 0.448367201764 
0.944510547485 0.799328387402 0.693215134801 0.708047493083 0.80830782239 0.883342348614 0.891302943449 0.89799068694 0.954097412894 1.00039066382 0.944241771518 0.786712707439 0.617580157727 0.512472658718 0.492124477981 
0.948345193395 0.835036725881 0.773612751402 0.80817055056 0.886539229733 0.904782699549 0.851571192142 0.833238201132 0.917169322395 1.02151422901 1.02014995982 0.902261273751 0.759453755431 0.659614494009 0.614592881345 
1.01891681729 0.956013628779 0.925962020087 0.941325026635 0.965831440784 0.933151565522 0.856438058125 0.848302247072 0.973067143076 1.13605687724 1.18847212424 1.10043528676 0.960360304646 0.842537859569 0.762244812445 
1.13930005891 1.12144573034 1.09855303201 1.06849023091 1.0297139325 0.965613007233 0.903125804226 0.932337887444 1.0972860287 1.29930361839 1.3811545953 1.29494550448 1.12704209438 0.973560962951 0.864280355674 
1.22146408147 1.22788378729 1.19956907705 1.13154318695 1.0481609212 0.972345734142 0.939116766458 1.00740006331 1.19388897462 1.40198223642 1.48060969958 1.37311999245 1.16815860435 0.990842968687 0.887262747753 
1.19654046078 1.19868123129 1.17091736942 1.10335134554 1.01081620436 0.929611975481 0.90788491035 0.988994350861 1.16756707397 1.35170345284 1.40862075959 1.28626666407 1.07658130998 0.924356213632 0.880867938746 
1.08685149929 1.05981149449 1.04893935005 1.02757068546 0.957403667216 0.860124865064 0.811114266363 0.868172330553 1.01559843241 1.16411293783 1.20600588905 1.10591776387 0.95320947476 0.887137979264 0.944600161601 
0.980120374991 0.914724131066 0.934452451105 0.987042272124 0.953863710451 0.824816230378 0.715353434799 0.723150711612 0.831184126921 0.94698569391 0.990016161347 0.951119002623 0.90856172052 0.965755171777 1.12566142933 
0.931036634296 0.832627570759 0.88260780331 1.00786675 1.01363652716 0.854538325867 0.683551067304 0.64205407827 0.713015197381 0.796221666071 0.839476555881 0.868719377633 0.948961904346 1.12754837 1.36114424878 
0.905132279579 0.778052991989 0.837478457758 1.00896360643 1.05569183564 0.901985376111 0.713040664023 0.651785588301 0.696843061296 0.741183212283 0.761177280624 0.824358464986 0.992068447013 1.25771024 1.53232336563 

0.911716350905 0.975505979771 1.07491302524 1.23420044536 1.39016059282 1.45563396178 1.44886597245 1.46147102817 1.50929240299 1.51378419588 1.43934730284 1.35433482605 1.32615967737 1.33421606042 1.3243566776 
0.826298568382 0.910052385437 1.02623681211 1.17345674567 1.29625076272 1.32671620624 1.2805818926 1.24362700581 1.25773055511 1.28383226735 1.28863606631 1.29981610738 1.34242112483 1.37530207542 1.3379008677 
0.732689414942 0.802966903598 0.904288278818 1.00588561262 1.07663593593 1.09157601173 1.06169898036 1.0357523578 1.05435750497 1.1133729939 1.18160718175 1.23692417705 1.2676913632 1.2534147557 1.17307624796 
0.663142016059 0.717621318903 0.791493830306 0.8322344713 0.845753407436 0.862290072619 0.888860895518 0.921483869478 0.978128220742 1.0765117167 1.18397051242 1.23050164925 1.18139607691 1.06661566516 0.931068340462 
0.604640987397 0.662540481445 0.713073636419 0.700377530612 0.670565526632 0.702219255505 0.797854602374 0.903682449567 1.00818056592 1.1383293186 1.2589596273 1.26639941516 1.11826381625 0.900747589361 0.721607078279 
0.545606869265 0.617630296632 0.651082411326 0.610317224513 0.571009091514 0.632136456137 0.786180970117 0.947004652893 1.08171708272 1.21833709583 1.32205470544 1.27900815592 1.05398340781 0.773965622153 0.583873880911 
0.531829889601 0.603111897296 0.617379433185 0.577372948828 0.565539355313 0.662261541606 0.843336274097 1.01714912659 1.14749793252 1.25771474113 1.31478363887 1.21807585461 0.951746612737 0.658989294919 0.490048255699 
0.626942991839 0.666996318035 0.653635214823 0.631225218861 0.663025283584 0.779086367623 0.93896655153 1.07603635827 1.17100286812 1.23567013434 1.23273789311 1.0880499757 0.812315879662 0.543369240061 0.412634466214 
0.813084997115 0.800481478317 0.757056515665 0.755173754264 0.821084506922 0.923964322492 1.01686369839 1.08266652782 1.13328286076 1.16103336526 1.11187630996 0.938269266642 0.679181335461 0.455172150431 0.366698893543 
0.980030833493 0.918448284873 0.857508124749 0.874496794229 0.956190063195 1.02272644831 1.03255259539 1.02582027689 1.04865085621 1.06902680719 1.00537281546 0.828559241191 0.603608222433 0.432452563586 0.382128983702 
1.03966286735 0.952175944335 0.893065485822 0.924367745886 1.00709906695 1.0385489578 0.98862093306 0.94159318034 0.968867401475 1.01527984103 0.96858620426 0.806910834587 0.616547417864 0.488048818361 0.460285143259 
1.0207969034 0.931889126296 0.881710920844 0.909445271088 0.975387222647 0.985194178819 0.920351246387 0.882509813412 0.950965282752 1.05184951394 1.04483625373 0.903014718363 0.727224043512 0.609999399431 0.575100626237 
1.0212327402 0.946651189364 0.894176793526 0.885980488104 0.907358022047 0.899931156091 0.857161524295 0.872129736761 1.01230901239 1.18762299746 1.23325892533 1.10596359333 0.914377623901 0.769035449774 0.696810417207 
1.08469804291 1.03393893364 0.966535010362 0.898699506088 0.851910842641 0.817535865228 0.805855937479 0.888981539852 1.10811767064 1.35703265409 1.4518420718 1.32885004215 1.10073977603 0.908242074187 0.79591868296 
1.15631983156 1.13349853945 1.05722778075 0.943207651412 0.833442296835 0.760209162255 0.758268450026 0.884879185315 1.15221093048 1.4402087975 1.55826707304 1.43098483909 1.17432357284 0.958732591012 0.847229976127 
1.15583291619 1.15148140795 1.09008338899 0.982134428663 0.849542451047 0.735322946054 0.705375202981 0.822761369694 1.08009849031 1.35070021542 1.45670566077 1.32971505728 1.08634704639 0.908020041936 0.86088600912 
1.06945014756 1.05636369821 1.03080476751 0.988802257787 0.886243684213 0.740124049858 0.650856685588 0.711506690628 0.909618146759 1.11971687629 1.19515346871 1.09285154207 0.921278014013 0.840011959516 0.895359304296 
0.95884706613 0.903737600829 0.913843878934 0.967553047619 0.929833091051 0.767285098809 0.612780739198 0.603394234583 0.730913706397 0.873746638252 0.925541870484 0.878799488971 0.822360546155 0.861449586558 1.00385077231 
0.888414490411 0.76911423628 0.791556316875 0.92577839622 0.956992919508 0.798574040922 0.604093812263 0.54839177338 0.626764554807 0.719252112726 0.758961717479 0.777199006654 0.839701395134 0.982079489413 1.166192724 
0.860721799487 0.672176732696 0.672041625489 0.84090926693 0.926381973788 0.802250053621 0.618039089539 0.559553013053 0.618368829368 0.674586972358 0.694303875669 0.747774889771 0.890142892385 1.09946312226 1.29682380487 

1.01203517265 1.17356429243 1.30289385256 1.45461907785 1.59768622409 1.63588190076 1.56770952995 1.51005765463 1.53315536047 1.56789582771 1.52437778614 1.42467539512 1.3556256229 1.34153633971 1.32701375669 
1.01620733049 1.19505006567 1.33601811155 1.46611330362 1.56298409165 1.55748120621 1.44927900564 1.34113745817 1.32167375475 1.3688535897 1.40692350113 1.41089589248 1.40516179276 1.38898366509 1.32040364303 
0.963147021858 1.10708800977 1.22016144846 1.30254255633 1.35012154932 1.33379770479 1.24783261752 1.15094340136 1.12330715808 1.18496677206 1.27816711821 1.33028409778 1.3149599476 1.24646396911 1.1364919992 
0.852835558835 0.943421351721 1.01441362029 1.04935100679 1.06666670179 1.07731591667 1.0656047861 1.03269227915 1.03044221118 1.10630778222 1.21926037757 1.26076906992 1.1762371875 1.02309201741 0.883479882938 
0.694691155607 0.74846550898 0.787731236759 0.795161679955 0.808965362859 0.867764304323 0.945759529861 0.994683562002 1.03321712429 1.11893944654 1.22276063864 1.21887898372 1.04695950762 0.812564515069 0.658082357368 
0.528604868349 0.570966764874 0.595806481728 0.601370563792 0.635737902727 0.743331303827 0.890619175024 1.00417756814 1.07848020485 1.1652433705 1.23994862151 1.17958499739 0.935959965867 0.648478587814 0.492417311778 
0.442932264382 0.484918762106 0.504311691608 0.525644464129 0.592391893318 0.730543216961 0.902360817498 1.03996151117 1.13068563323 1.20766438775 1.24107540612 1.12613401521 0.838561324713 0.529486620817 0.376785203822 
0.52215962153 0.556353491998 0.566940306021 0.604854633976 0.69561855326 0.829930482905 0.970639239156 1.0828204039 1.16530759638 1.22511625636 1.21614103563 1.05846477822 0.757114240924 0.455461200145 0.310116177965 
0.746313383299 0.757521214137 0.750876808194 0.793559301077 0.886951164351 0.982918935677 1.04865542016 1.09687232117 1.15182558495 1.19435582551 1.15449312834 0.975939267683 0.693564593514 0.432043533487 0.311578019437 
0.975090281072 0.953520728604 0.927344826274 0.965259163051 1.04821972489 1.09763180484 1.08307495094 1.06022846547 1.08314411929 1.11432829069 1.06011093155 0.882694335108 0.644961869891 0.45246768415 0.382594517581 
1.07373586779 1.02075074612 0.980897300256 1.01264331575 1.0891857572 1.11737193223 1.06145037532 0.998290172315 1.00494709301 1.03674792347 0.982224346824 0.814430899479 0.620803005317 0.497240256263 0.482749789967 
1.04436517749 0.969724343015 0.919403499909 0.937906144728 1.00908334917 1.04654194046 1.00442516744 0.954522366149 0.981342514396 1.03870425574 1.00054555179 0.838412515182 0.657970070297 0.561732620128 0.567412024686 
1.00214994114 0.920491126618 0.852513818728 0.83272941337 0.873335495807 0.918838539003 0.92155846565 0.932804032711 1.02589701825 1.14757759982 1.15249669921 0.994936028723 0.789871799878 0.663440110658 0.636688782176 
1.03228314946 0.963033902352 0.87060808592 0.785776366412 0.754823193344 0.770611499 0.804790428752 0.891393519306 1.07834203092 1.29307768169 1.36516260127 1.22211939375 0.98011944668 0.79800589667 0.719181489249 
1.1051099739 1.06788598214 0.963173580093 0.819886377674 0.701077124325 0.644821298965 0.66409535722 0.794031786025 1.05392039466 1.3452491917 1.47900560738 1.36346026424 1.11114255258 0.906442635972 0.81594250945 
1.13208880186 1.13141115766 1.04568884361 0.897324015252 0.726037379455 0.586272922097 0.542297116524 0.653658398781 0.919780232788 1.22255321323 1.3775155683 1.29721786895 1.08627709437 0.928752958905 0.896204307999 
1.07207070247 1.08378367572 1.04334786968 0.960404666859 0.806317330202 0.610425049265 0.483019959867 0.52538792911 0.730875522023 0.975576840865 1.1073311841 1.0682486165 0.946785877441 0.890045396687 0.949769448842 
0.966977810739 0.944879330782 0.945862015569 0.967159656672 0.888167875883 0.682587852479 0.491645671629 0.461524033696 0.587759419455 0.749793317202 0.843218008544 0.852728888559 0.840409956491 0.885789003489 1.00440802904 
0.889225941669 0.789960050707 0.796168966641 0.90346837984 0.91290358389 0.738308976709 0.532150149456 0.471022103052 0.550078816063 0.651582735164 0.716557066562 0.772079881066 0.852111986362 0.960645366893 1.07490969276 
0.872745366605 0.677871179746 0.642652790303 0.777716542719 0.850243732814 0.732635109379 0.565101652956 0.525587437104 0.599725506733 0.66866822235 0.706726429575 0.77868321118 0.906326186608 1.03922522957 1.12446755954 

1.16109039781 1.34647127671 1.45224459359 1.56393374761 1.67510022913 1.68136425376 1.56176426195 1.4444697653 1.43710467484 1.48469349986 1.47073472045 1.39192786951 1.34215065954 1.35480403904 1.35008298485 
1.21231515209 1.42632007294 1.55975923007 1.66334173782 1.73382636863 1.69738747198 1.53964595513 1.37159527863 1.31325372969 1.36046661205 1.41952507738 1.43641330804 1.4286601908 1.40428760665 1.31794397666 
1.18918941208 1.37329807413 1.48957452159 1.5601634385 1.59053757396 1.54328548489 1.40382213524 1.24123750863 1.16275113384 1.20696016878 1.30671822485 1.36272449575 1.33322352349 1.23948411264 1.10505593097 
1.06312434038 1.18419293483 1.26010747994 1.30039546927 1.3198394693 1.30893254773 1.24479388038 1.1435684712 1.08075526508 1.12007288487 1.22013229413 1.25630821048 1.15796816761 0.985083397312 0.835998545223 
0.855176773676 0.91715989882 0.955216852861 0.9836483229 1.02240306734 1.07403011182 1.10562987038 1.08989174384 1.06560328577 1.1004077569 1.17178140676 1.15351630249 0.975448806277 0.739553680521 0.599471484007 
0.63637665496 0.662947392123 0.676584181245 0.709453764684 0.780366581517 0.88773732146 0.993859618777 1.05252844272 1.07318127442 1.10670437305 1.13654716279 1.05409353356 0.811098165828 0.538238677895 0.413544070685 
0.507831706621 0.520495488314 0.520502734069 0.563022957939 0.659907863136 0.793478093358 0.928764672158 1.02859633301 1.08752909753 1.12436550086 1.11291394829 0.972008968537 0.686835545589 0.397547114651 0.277498420197 
0.547750503873 0.554973301639 0.54415264603 0.589598088245 0.69329122748 0.816164115849 0.930466628607 1.02849254933 1.10710202137 1.14898786738 1.10614619715 0.924804878217 0.625403281558 0.340441864271 0.216847460532 
0.736697395665 0.733731173929 0.708504663706 0.744217135681 0.834588467639 0.920125197793 0.97716419864 1.03296662672 1.10276708123 1.14398603283 1.0844227672 0.891373800385 0.615438524708 0.370728511436 0.262891933563 
0.946085083493 0.922209278943 0.879803689001 0.899346237657 0.972114897828 1.02264305843 1.01899610087 1.01165810619 1.04457991008 1.07216759191 1.00668881431 0.828473355041 0.610700213087 0.447552832716 0.396196953867 
1.0447136128 0.99397012271 0.938197688636 0.946698886014 1.01692119052 1.06447213646 1.03353170994 0.974757991069 0.961206373306 0.966180410936 0.898355233437 0.741787775851 0.584973112992 0.511434262103 0.535248540173 
1.0246672763 0.952598037733 0.888930346585 0.888719095005 0.96611861513 1.04103748311 1.0286449489 0.959040163473 0.923534157725 0.921237377206 0.859753165978 0.713146970944 0.577957425257 0.545044016571 0.606806953029 
0.993273198099 0.915587144387 0.840958455558 0.812282022066 0.870889107016 0.962567446502 0.989987997677 0.957361575185 0.955396651455 0.99428243648 0.968526652179 0.825278874159 0.661256787571 0.593726068429 0.624173104346 
1.03810332512 0.975071788473 0.880323161695 0.789304622854 0.773885821641 0.827194888231 0.873363455147 0.903795446287 0.989262478727 1.12387945357 1.17371994139 1.04964841026 0.841999758176 0.703247521019 0.667278177956 
1.13235733287 1.10181553508 0.989320376037 0.826152567843 0.700631951111 0.657064585308 0.673286317987 0.751140299987 0.930702181063 1.17026653766 1.30840582615 1.23028806145 1.01645651082 0.843819865323 0.779460998304 
1.18256020555 1.18946093705 1.0834105753 0.890574427526 0.681051277463 0.525834088302 0.468520176951 0.54281995649 0.760788861642 1.04618137721 1.23506231621 1.21658639518 1.05875784306 0.932009616753 0.915036779507 