# vtk DataFile Version 3.0
vtk output
ASCII
DATASET STRUCTURED_POINTS
DIMENSIONS 15 20 65
SPACING 1 1 1
ORIGIN 0 0 0
POINT_DATA 19500
SCALARS Image float 1
LOOKUP_TABLE default
0.5968277008252371 0.5721877200694766 0.551726133618196 0.5324786747910578 0.5122115975554475 0.4900129359488833 0.4666160199421266 0.44441578673465987 0.4271853063899125 0.4195404267042253 0.42623098393251035 0.45135629598261495 0.4976107945485497 0.5656633733637105 0.6537619298186156 
0.696608624646731 0.6720060954413917 0.6497306291895593 0.6273030681126838 0.6031118172717125 0.5769098070795491 0.5500358432665607 0.5253362676464667 0.5068085019707389 0.49902526583320006 0.5064240259443058 0.532559944144159 0.5794231991153737 0.6469145570348096 0.7325577024279691 
0.7779351717414702 0.7539298200787 0.730344252360629 0.7054556232960386 0.6785538951980485 0.6502790715318935 0.6226848582264372 0.5990300034507164 0.5833395222116989 0.5798074640235283 0.5921290855770492 0.6228541484307318 0.67284703216679 0.7409262078806255 0.8237374610629989 
0.8292348604072762 0.8061061518079798 0.781934755646802 0.7559874947244195 0.7286189574237973 0.7014010803901971 0.6770019776262822 0.6588460614779525 0.6506192010456512 0.6556996381494201 0.6765979456160239 0.7144805471002988 0.7688356366261443 0.8373219532604118 0.9158226055887969 
0.8446893902886184 0.8223031786984497 0.7982777625005266 0.773016716418499 0.7479498062028925 0.7254361475856053 0.7084668248001958 0.7002292611025941 0.703613433511943 0.7207407151616563 0.7525827134479902 0.798715591889511 0.8572314737436854 0.9248080557378423 0.9969235559651869 
0.8253482515204239 0.8030217922458565 0.7795686028991022 0.7565656276422629 0.736382104420852 0.7218707998418564 0.7159365800531954 0.7210683441817965 0.7389206373866138 0.7700137091902229 0.8135913879579598 0.8676430982761515 0.9290678312500983 0.9939399605576733 1.0578320134096972 
0.7787752906294446 0.7552196070978666 0.7321667542320672 0.7122979465958378 0.698685041707526 0.6943131835061845 0.7015799199855336 0.7218697009524971 0.7552837747506597 0.8005701010499916 0.8552548785649198 0.9159369867491364 0.9786783050649848 1.0394124365108737 1.0943030662372282 
0.7173478673161069 0.6907574246701172 0.6671851082653507 0.6502716701432067 0.6435232441435766 0.6497259174812122 0.6704456158110297 0.7057126267676311 0.7539527347068044 0.8121763570790421 0.87638456458367 0.9421081840167047 1.0049728123246666 1.0611835205552413 1.107847628981553 
0.6556447135279193 0.6239627788930965 0.5982764278123858 0.5830105789191435 0.5818793638451624 0.5972548397668912 0.6297257325434769 0.6779349663875317 0.7387318682258966 0.8076134924263594 0.879372418079165 0.9488279215370201 1.0115025474938877 1.0641202777843501 1.104842860393358 
0.6075468707888764 0.5688748497519759 0.5391104459479953 0.5233026107538493 0.5252455386787939 0.5468504971891965 0.5877956506739125 0.6455251048718194 0.715604520955649 0.7923733183558603 0.8697763372186598 0.9422228786374979 1.0053160532676697 1.056322051486859 1.0943023566712142 
0.5836955221238608 0.5367576734421328 0.5010533770091191 0.48214375243615987 0.4838964585876855 0.5078862408772664 0.5531362905108307 0.6162524984515017 0.6919328434054098 0.7737654757320621 0.8551750520536079 0.9303486600003652 0.9949765964208265 1.0466793802252674 1.0850541800666327 
0.5898103120921182 0.5343529161612682 0.4914664187185631 0.467170932637042 0.4655053028061643 0.48795610709576603 0.5332627926289523 0.5976353416615995 0.6753495630374139 0.759618324631877 0.8435875317697761 0.9212833463651836 0.9883470396255003 1.0424348413060427 1.0832248709021335 
0.6261238335636424 0.5631332008967636 0.512866896423733 0.48179403316991476 0.47427383556741626 0.49199282170708325 0.5337897327931581 0.5958956593313157 0.6725472228506899 0.7568673313030835 0.8418626139888158 0.9213679064548916 0.9907801158291345 1.0474647620000983 1.0907811519737782 
0.6879081392054751 0.6195747297677132 0.562994600586881 0.5250815994662588 0.5106412288654756 0.5217882395718296 0.5577481736919284 0.6150686345025508 0.6881996461180954 0.7703425637850686 0.8544241692592546 0.9340346252492481 1.0041783532354196 1.0617240104385455 1.1054969478301517 
0.7668328823768874 0.6962560251921881 0.6356454777791639 0.5923122263756501 0.5715340801577837 0.5759339522123089 0.605232881340586 0.6564067700513269 0.7242125591094516 0.8019922039795461 0.8826209479816303 0.9594471088572957 1.0270772330289186 1.081891859654617 1.1222276910073892 
0.8527557811880898 0.7834533675546593 0.7220113604609629 0.6760005313939769 0.6510400767612242 0.6501389031123189 0.6734055289927088 0.7181590027226207 0.7794123180985658 0.8506441616879126 0.9247332080087822 0.9949081731899798 1.0555697300360127 1.1028665425556818 1.1349525413303914 
0.9355242104155275 0.8708619253738541 0.8122147636839342 0.7671570663947501 0.7413411862962651 0.7378343009235713 0.7568251384699721 0.795731150106906 0.8496773841867389 0.9122645163458174 0.9765031209359677 1.0357702863689733 1.0846461195187973 1.1195111515424592 1.1388272775837236 
1.0064467935350097 0.9491167633982155 0.8967490654947333 0.8565461928411301 0.8337332432217003 0.8309525366160492 0.8480356995190306 0.8821718725324954 0.9284333652253219 0.9805698683760714 1.031946155449793 1.0764809793352734 1.109448862887525 1.1280309532639339 1.1315423324675549 
1.0592359076108093 1.0108921724497009 0.9676085557501344 0.9357545776072649 0.9195839989179245 0.9207697153338071 0.9383236328529267 0.9688958620953717 1.007394041551 1.0478204137134766 1.0841968005535407 1.1114390715080824 1.126053834927284 1.1265591542499522 1.1135739720861952 
1.0903769594111181 1.0514848442725166 1.0189939378297743 0.997958125051983 0.991130979710751 0.9987269628277151 1.018565621973651 1.0465571267255829 1.0774411943632614 1.1056599554107547 1.1262316879735343 1.1354973458268471 1.1316339517000435 1.1148648668570798 1.0873418259405336 

0.5960289181431703 0.5608473949925792 0.530343366837384 0.5022241067149725 0.4748074122681371 0.4475896777333255 0.4215815169501894 0.3993624063489214 0.38484501732351784 0.38277725771011195 0.3980430259708474 0.43484955979313644 0.49590837898476575 0.5817261350702566 0.6901187502220504 
0.6831383621023381 0.6461604069080347 0.6130856437225708 0.5820934950583577 0.5520020325776994 0.5227655468414331 0.49574001676386825 0.47367810114316483 0.4604533984918888 0.46054877936560934 0.47837333005090765 0.517495488608001 0.5798951080742514 0.6653429095563282 0.7710101542603863 
0.7542893470567439 0.7162469712675141 0.6810935367566978 0.6477343315614745 0.6157761503170226 0.585888034335167 0.5599360707471263 0.5408746945433346 0.5324111089826163 0.5384880798702033 0.5626521505014611 0.6073890313471205 0.6735155289986879 0.7597174344587401 0.8623141860815374 
0.7993500672157009 0.7608455345497419 0.7243622321515987 0.6897644981938097 0.6576464516142059 0.6295022978806634 0.6076933785094675 0.5952221939329029 0.5953497203085315 0.6111099835928286 0.6447854302262699 0.6974097423574225 0.7683630890625265 0.8551192859490994 0.953194665629961 
0.8128832815230342 0.7742449889573718 0.7372837327314024 0.7029819680633911 0.6729797126303657 0.6495271275655004 0.6352805478809774 0.6329812600703026 0.6450698773475324 0.6732918774419485 0.7183444734234395 0.7796053720864136 0.8549737430742835 0.9408450344323214 1.0322342783596006 
0.7952502525440515 0.756373192766799 0.7196274484299227 0.6871651593026972 0.6615795908128074 0.6456458816824625 0.641977838351184 0.652664265837879 0.6789456510827635 0.7209775245963678 0.7777059637625127 0.8468597195405768 0.9250476383171788 1.0079423519063935 1.0905315574839887 
0.7525144176892132 0.7127621644658878 0.6764968377412709 0.6469789363783416 0.6275405052743247 0.6211514174632066 0.6299956177885117 0.6551351328017482 0.696318797393554 0.7519609568522535 0.8192810082271736 0.894565830659484 0.9735003120768824 1.0515092960869215 1.1240663060720117 
0.6951827197969805 0.6534196164975455 0.6172982550251583 0.591035756895776 0.5784271963860826 0.5822965287326585 0.6040626711648104 0.6435004450320075 0.6987373899382672 0.7664809164438732 0.84242626507143 0.9217639182402692 0.999692149386745 1.0718485213144966 1.1346006805751867 
0.6360954728779082 0.5908790890026628 0.5539629649219897 0.530321483224305 0.5239497392767073 0.5372649868341691 0.5707266787659098 0.6227448497292727 0.6898926714370767 0.7673817991105764 0.8497105131460296 0.9313647466268564 1.0074470048912936 1.074128739145761 1.1288632300592103 
0.5879565714229065 0.5378651237275559 0.4988022257202872 0.47630286028284263 0.47437848418324524 0.4949256146906538 0.5374419698438692 0.5991014605357212 0.6751745461264338 0.7597176646509198 0.8464071056208256 0.9293685052280155 1.0038580074192947 1.066684081515977 1.1163133154769906 
0.561044142800687 0.5050618763427295 0.4624225300075543 0.4390710759199703 0.4389715617254829 0.4635576900949676 0.5115561282874587 0.5792120784883057 0.6608760963870596 0.7498476237492596 0.8393263539040853 0.9233059724630746 0.9972593076865762 1.058506765603052 1.1062228313941773 
0.5615563514913281 0.4994113698523162 0.45208182359162064 0.4258419686368392 0.4246674213199545 0.4497353043697859 0.49933479746744236 0.5691979596672352 0.6531891858348445 0.7442311137916576 0.8353063461763163 0.9203650925912429 0.9949904674175739 1.0567216124962182 1.105000906588542 
0.5908629976167918 0.5232180115644575 0.4707475859203189 0.4400415193909839 0.43523225341852845 0.4575279630718997 0.5051686410421798 0.5738015639390682 0.6572036360039913 0.7482225181384756 0.8397758777956098 0.9257440836802603 1.0016166094278693 1.0648014739914058 1.1145710616933546 
0.6457081067166367 0.5741438572200913 0.516957703112027 0.4810783446769352 0.4709595717990544 0.48811630798967165 0.5310785439903244 0.5957537957916076 0.6761243149998796 0.7651549300709949 0.8557592877585161 0.9416705811153117 1.0180871474416833 1.0820086849022035 1.1322368159931395 
0.7192027747672823 0.6459932701692834 0.5854229451194203 0.5447704107853238 0.5289142126856335 0.539843965186262 0.5765764342181646 0.635467706242309 0.7108529157606639 0.7958990205955133 0.8835305906388714 0.9672866417357384 1.0419873592237465 1.1041286226357965 1.1519723021891668 
0.8023082299957204 0.7300460933128768 0.6681786818401098 0.6242774547903236 0.6036157279115404 0.6086448618166796 0.6388637934772188 0.6910757550734788 0.759970315477437 0.8389261523166286 0.9209057772579797 0.9993101013193629 1.0686772380554612 1.1251424198299556 1.166618384148694 
0.8854588197436623 0.8166280464203032 0.7560154295116535 0.7113144097090044 0.6879861204162704 0.6887196390850051 0.713280954006698 0.7587439434535092 0.8200439910697589 0.8907550266588175 0.9639682215850098 1.03314677735656 1.0928449788845436 1.1392074985661171 1.1702019230285536 
0.9600091049668897 0.89660914353388 0.8399015161446312 0.7973964887133521 0.7743587794393969 0.7733030876568889 0.7938810573858613 0.8331439440340631 0.886115492457801 0.9465737263153928 1.0079216700764668 1.064025862607469 1.1099159678326402 1.1422653525429296 1.1596068321996102 
1.019283509982551 0.9625825573755866 0.9121521541664707 0.8748948869732402 0.8553650726393857 0.855376614913821 0.8740073466293764 0.9079632373429266 0.9522203419733976 1.0008334812126676 1.0477898829387988 1.0877920747515812 1.1168739699601788 1.1327831389328784 1.1350963589445797 
1.0591265249955164 1.0095747801109929 0.9671827897675367 0.9377538889901619 0.9245764466578186 0.9282321563325374 0.9467993539790646 0.9763816151092082 1.0118536240215334 1.0476986795026964 1.0788143842139042 1.1011813267566875 1.1123186184531209 1.1114844773826933 1.0996149067909662 

0.596874225398326 0.5536471783911737 0.5145670832251498 0.4780668755332235 0.44314942059603646 0.40990198900004915 0.3798091151097054 0.3558131400346102 0.3421024856205662 0.34363977975931337 0.3654744045064582 0.4119154522235723 0.48566875050340397 0.5870613179507517 0.7134831058584133 
0.6706239149809471 0.6236121993632032 0.5810693654247197 0.5418898259774478 0.5054542187773059 0.47209602214417046 0.4433768762135689 0.42212482914390725 0.41221899908779236 0.41813448091532845 0.44429188726121627 0.4942853525997291 0.570088526305159 0.6713559344102767 0.7949420759758765 
0.7309385260642258 0.6810084286700092 0.6355143780457676 0.5940421568308693 0.5566335338853241 0.5241400196597105 0.4983979776641289 0.4821951987219311 0.4790245511138214 0.49264523192588405 0.526496325816009 0.583030277444979 0.6630536955556211 0.7651762898447197 0.8854713046038514 
0.7693678580140157 0.7174272667767593 0.6697855101147249 0.6269492585753639 0.5898466555386438 0.5600104667702118 0.5396078446595421 0.531310866183529 0.5380200778505901 0.5624683875629802 0.6067460711879414 0.6718003666626082 0.7569747088717004 0.8596609168688687 0.9751389325001623 
0.7810702890742113 0.7279148206295584 0.6791188743191333 0.636281235136443 0.6013211538709452 0.5764556274243625 0.5640692127332007 0.5664975849962662 0.5857524711801142 0.6232168957208014 0.6793392380481794 0.7533553911723182 0.8430716136912922 0.9447454442696296 1.05310513772943 
0.7658406154607517 0.7119699669389227 0.6629928764338334 0.6216702618268499 0.5908677675643615 0.5733239683293148 0.5713808770381388 0.5867218550019759 0.6201530777692478 0.6714496616516737 0.7392722704463098 0.821149640721012 0.9135198429783592 1.0118279801738446 1.1106871781297611 
0.7282240936787039 0.6737029687117394 0.6252559482466776 0.5867578628799749 0.5618380244819398 0.5534694854530157 0.5636113044199144 0.5929641222393967 0.6408728524496269 0.7053785147461372 0.7833925933143921 0.8709488380326725 0.9634830619039483 1.056101080642661 1.1438144511491295 
0.6766887474703412 0.6211188841695064 0.5734656436722981 0.5385639367588033 0.5205337860479434 0.5222467734198074 0.5449485710821959 0.5881009806704258 0.6494628436044728 0.7253827017777518 0.8112377505202736 0.9019317688132104 0.9923635285651473 1.0777958462273949 1.1540884169036278 
0.622047502725478 0.5646816279638497 0.5175729814464813 0.48629531815003796 0.475166729745104 0.4866615086439175 0.5210814137690158 0.5765403786696374 0.6492573901673316 0.7340951003518174 0.8252387264575373 0.9168896787692209 1.0038547355027037 1.0819422187506982 1.1481240453077288 
0.5754833160667746 0.515461578169298 0.46821249380059066 0.4398130652219998 0.4345409727947822 0.4542955912787342 0.49836930567431104 0.5636038836108203 0.6448962835717715 0.7359555993821731 0.8301703777726381 0.9214315117445981 1.004772557264169 1.0767325448874754 1.1354066661172775 
0.5465970682302347 0.4832407850345634 0.43492589370535717 0.40803587745528314 0.40668051837633434 0.4321706734580081 0.48291182047811915 0.5547267674596564 0.6415416501347576 0.7363063458254916 0.8319827804756532 0.9224292074961435 1.0030358197182192 1.0710209782465308 1.1253667138201005 
0.5418614828228571 0.4749354340286243 0.42464546388855884 0.39756199571231976 0.3976342229272052 0.4257355579812433 0.47966895822373556 0.5546186915151053 0.6439580192061837 0.7402631425375207 0.8363534188782206 0.9261814171867818 1.0054323460113443 1.0717530745438197 1.1246041563597875 
0.5637445298332403 0.4936067405436395 0.4406972604085079 0.4117433299006763 0.4106588150792667 0.4381494992896824 0.4917931140694569 0.5665621396658429 0.655683503336598 0.7516765184839027 0.847387847073381 0.9368530949035834 1.015855669741005 1.0821160183313987 1.1351158973053144 
0.6106014162973921 0.5381957694102544 0.48247140668138117 0.4503528864715268 0.445907352848135 0.4699796428602604 0.5202972072419965 0.5920021743879705 0.6784994889717902 0.7724642595629194 0.8668354553161625 0.9556382651321654 1.0345193433814552 1.1009387281207892 1.1540276359826982 
0.6772697726572076 0.6039683475623118 0.5457721233648027 0.5098677861925128 0.5006483522818093 0.5193436517267026 0.5641055121265763 0.630501662749375 0.7123100649859759 0.8024657975429045 0.894001165050342 0.9808362367831169 1.0583163867049445 1.1234467451405137 1.1748301956501375 
0.7561753280903641 0.6835249311102568 0.6237309980565189 0.5842690413756629 0.5699307403902708 0.5824277870180262 0.6204348371509553 0.6800263789747357 0.7554054139161298 0.8397871713961317 0.92629241007781 1.0087208908586793 1.0821107705102548 1.1430356646161508 1.1896388176805717 
0.838686911429907 0.7681404002229125 0.7080680504488681 0.6661612912229194 0.6475180921336746 0.6542245652154542 0.6853664115052961 0.7374247326803126 0.8049581235951049 0.8814423499233796 0.9601326032774856 1.0348289396376922 1.1004571260827136 1.1534169706642174 1.1916904574719727 
0.9164536290432888 0.8491623512156843 0.7904344601652653 0.7479628568753082 0.7268671208272858 0.7292905234662391 0.7544257862141817 0.7989171984973688 0.8575378987633921 0.924015080103232 0.9918734193213251 1.0551845241417572 1.1091410852122952 1.1504110749086527 1.1772628172358885 
0.9825023128906882 0.9192142167443159 0.8635768809151569 0.8229217582815477 0.8019355622656298 0.8023408767580011 0.8230088440373488 0.8604338316954517 0.9094557905437642 0.9640968358395586 1.0183834036517014 1.0670488084324923 1.1060453756093942 1.1328324574014559 1.1464399853826865 
1.0319503086875779 0.9730127398272637 0.9221233338652348 0.8857763935799794 0.8676731751034247 0.8685726110130693 0.886573734317146 0.9177296878677571 0.9568561529580434 0.9983886349580456 1.0371598962970259 1.0690031697430196 1.091128913011456 1.1022636148654366 1.1025718614231255 

0.5951655453510404 0.5465827584749307 0.500755706270957 0.45683132845760854 0.4145725547368282 0.3747982841827755 0.3396416028191507 0.312579733261116 0.2982127666845158 0.30179454880199397 0.3285488597169903 0.38283664020105157 0.46727251186585667 0.581915672041878 0.723674141635725 
0.6558715952517388 0.6015435313604164 0.551313102433048 0.5047829082683286 0.4619831789121661 0.42378333409203794 0.3921427996008061 0.37015476022604876 0.3618577305802433 0.3718145062645303 0.40448698749942913 0.4634678042278637 0.5506623774862694 0.6655421916951091 0.8046041590801482 
0.7056071056860409 0.6465331689576008 0.5925012283780816 0.5437670631891974 0.5008899627693797 0.46505460469425436 0.43825272277448835 0.42328925457981104 0.4235947771814018 0.44284587614816795 0.48441901193539244 0.5507312321864196 0.642549928793108 0.7583782839661669 0.8940359206786379 
0.7377340127777059 0.6751260961679453 0.6182100977591017 0.568115001087771 0.5261686030157305 0.4940697405773333 0.47395000992930014 0.4683096855101665 0.4798223844516037 0.5110138925450933 0.563835102161294 0.6391682187199573 0.7363275412462934 0.8526365687059528 0.9831752747062892 
0.7481732207418631 0.6832871141481495 0.6246526447824522 0.5744540054407407 0.5349329806726523 0.5083692592499048 0.49699746162660136 0.5028701330701861 0.5276745468998153 0.5725090606225455 0.6376265140085463 0.7221605372815999 0.8238653532593628 0.9389170120328693 1.061837719061709 
0.7362975020651065 0.6702245576784732 0.6111196519909393 0.5623140875885794 0.5269693413004339 0.5078530070071823 0.5071204595560383 0.526134580576731 0.5653395355915508 0.6241867156673637 0.7010984655983116 0.7934529038897598 0.8975821106085058 1.0087932001766147 1.1214409486759727 
0.7052002778243225 0.6386911332985338 0.5802394658385055 0.5342956575391274 0.5047988000557431 0.4947700366893823 0.5060009685367578 0.5388852370511448 0.5924076959974464 0.6642711871349108 0.7511152157242454 0.8487703970556564 0.9524995071862082 1.057197381035642 1.1575506358514485 
0.6612646356308008 0.5946479244465263 0.5376658962738657 0.49574040467501984 0.47332993231366643 0.47339180862371083 0.49704202556282506 0.5434650367318747 0.6100745370752766 0.6928769608313051 0.786953844186843 0.8869651327347652 0.987585301199134 1.083814148830708 1.1711457538861159 
0.613116365951846 0.5463414165235488 0.49122858907183165 0.45393463251325716 0.43912575702726264 0.4493776820098243 0.4848777974922421 0.5434732113722409 0.6210413644042468 0.712099603694699 0.8105296250615687 0.910280259811435 1.005929366321706 1.0930274756065255 1.168201771667014 
0.5701769425931132 0.5029638785336832 0.44968641415305977 0.4169636578897179 0.4093814594626529 0.42890014463165116 0.47465838384810677 0.5431972009548807 0.6290493363713906 0.7255730755927975 0.8258697830739258 0.9236183882417193 1.013688146228755 1.0924460092263781 1.157744181461143 
0.5411067997052358 0.47314822908293186 0.42130446006609235 0.3924098813373408 0.3907760258535723 0.4176614217528324 0.47121052676756037 0.5468591410305368 0.6381184099572664 0.7375831231047293 0.8379755611160741 0.9330398264738552 1.0181415449923579 1.0904947075582898 1.14901660096896 
0.5324339461543229 0.4635750781099295 0.4125128860673474 0.38612846431918557 0.38840371713930266 0.41998081509728924 0.4782365797116843 0.5578413561724714 0.6516855028782852 0.7519946047269624 0.851428633538015 0.9439746569645473 1.0254931869899617 1.0938535278389718 1.148677573799116 
0.5476048264610988 0.47794020149970456 0.42689298559363287 0.4013302289092876 0.40499262012477055 0.43814067721978434 0.49773448436252454 0.5780927847269641 0.6718940938445978 0.7713279006907351 0.8691877568003071 0.9597219269064007 1.0391150094757649 1.1055527372053042 1.1589055837919426 
0.5865942700827608 0.5164546900907062 0.46467363020830704 0.43814694591696735 0.44056837754283285 0.4721349711705506 0.5297829382480469 0.6078835677402491 0.6992517455387085 0.7962735541580975 0.8919518926050872 0.980699649450707 1.0587706999721544 1.1242963257851626 1.1769724842617695 
0.6460962847203559 0.5759446047472033 0.5228207215298232 0.4937567364430562 0.49262650545712006 0.5198715192241864 0.5727416553042567 0.6459724053542023 0.73275016848623 0.825779068551336 0.9182618890119566 1.0046417719455623 1.0810111411580712 1.1451662358930106 1.1963546468323263 
0.7202124345102576 0.6505031632776855 0.5956827403811343 0.5630261866643306 0.5567568279311804 0.5777598931495739 0.6237930897491214 0.6901135482551367 0.7703770447003006 0.8576337849041262 0.945248685682162 1.0276090794750594 1.1005392047015938 1.1614054302762251 1.2089552920420057 
0.8014774741874653 0.7325474561381085 0.6760418000735233 0.6395093826443411 0.6275504839004846 0.6415076763329962 0.6796413574071446 0.7377082088545651 0.809802711616486 0.889295461172352 0.9697090615609133 1.0454075227177486 1.112027887916704 1.166640441267797 1.207674110965717 
0.8820215408048345 0.814061756987349 0.7563374588069772 0.7165632956904301 0.699548397173512 0.7068868729624608 0.7371294218973099 0.7863487054265544 0.848957436676227 0.9186168705853287 0.9890844788043246 1.0548863236557042 1.1117508319713223 1.1567936865094834 1.1884873331999728 
0.9546652797766428 0.8877835984505997 0.8298005535884206 0.7883183234707319 0.767985988190998 0.7702459061745703 0.7935640416107136 0.8340419108024165 0.8862588827258212 0.9441790545101278 1.0019748075381674 1.054660907841701 1.0984862791929602 1.1310824193815332 1.151407403735095 
1.0137741756223195 0.9481123061948022 0.8912662365431959 0.8502920713484011 0.8291592053842287 0.8286338055507299 0.8466480926226014 0.8790262131872941 0.9203953423671608 0.9651063147106639 1.0080170819927892 1.0450437023539294 1.0734431659433672 1.091846323071998 1.1000972058757599 

0.5884998757467798 0.5370771631773185 0.48639734962653924 0.43624034293605884 0.3871311572041838 0.34069763107467743 0.299850527507587 0.2687483594607458 0.2525287427463051 0.25680995314908284 0.2869925594583652 0.34742186354036153 0.44050484001549595 0.5659045043498977 0.7199519683971444 
0.637105405325897 0.5781525402313682 0.5221486861037273 0.4693313516118255 0.4204060523070302 0.3768902020489272 0.3413107447525625 0.31721425819985305 0.30896412465213896 0.3213192493331899 0.3588148133223028 0.4249977794138493 0.5216051965002414 0.6478052265981014 0.7996404089047683 
0.6770555514061346 0.6117365940217577 0.5512002375747324 0.49629679863226056 0.4481351537854654 0.4083576894578106 0.37929770638327664 0.3639846406447287 0.3659735349444656 0.3889904103931673 0.43640725478189124 0.5105897130854845 0.6121942118452216 0.7395225654691249 0.8880621324105636 
0.7035434870226812 0.6333882902742635 0.5694325355319898 0.5133419321687397 0.4668673688273294 0.43199089473759267 0.41098914583529644 0.40639567041691604 0.42084714706868853 0.4568052236267566 0.5161595579922239 0.5997400894302977 0.7067953345799528 0.834522434790971 0.9777549923258225 
0.7133661656389637 0.6400755442775797 0.574076221167911 0.5180387581762147 0.47453358101667104 0.4460000901835076 0.43468295002598434 0.4425388985826707 0.4711097307971973 0.5213513861479208 0.5934110888420832 0.6863573241646032 0.7978899873894808 0.9240848308518584 1.0592487218157816 
0.7056342680133402 0.6308438572521575 0.5643057463954201 0.5098116923404945 0.4708074601638314 0.45016358804782464 0.44998294120110727 0.47147047671068726 0.5148680399012139 0.579435804411325 0.6634502588048377 0.7641914052086755 0.8779092112389293 0.9997863661839111 1.1239421748781728 
0.6821350605528097 0.6072082415448169 0.5415963055243269 0.4902122766702372 0.4572834768933004 0.4459364487794475 0.4579080236569597 0.49342419304672075 0.5512483158484174 0.6288623627667345 0.7227199708263959 0.8285048171417191 0.9413432590370997 1.0559513232335176 1.166733255667718 
0.6472441063044005 0.5731519346746197 0.50972997914928 0.462882162976211 0.43738668258862734 0.43634021543489976 0.4608315535968672 0.5098918842808955 0.5807105971347611 0.6690523061853749 0.7697755964700554 0.8773448763812229 0.9862448703222672 1.0912469351177152 1.18752628414798 
0.6073779454885878 0.5346895928460018 0.4743954710001221 0.4331492045283376 0.41596273362982705 0.42557758182945427 0.46217246588326133 0.5234470363795779 0.605046610217835 0.7012277710252252 0.8056241523955172 0.9119640426689815 1.0146171927787448 1.1089000020882218 1.1911327494688466 
0.570074754882601 0.4990396665100092 0.4424061704057246 0.4072749214709691 0.3985634232651919 0.41837887195253465 0.46582566232180406 0.5372677103515692 0.6269780038476246 0.7280362232401466 0.8332950433267896 0.936234720543154 1.0315627315377442 1.1154809776107797 1.185621678224832 
0.5428624039061279 0.4735325465945615 0.42064750957023445 0.391457687689416 0.3905274210898835 0.4191731986599747 0.4754151878934731 0.5544340584563933 0.6494297091544446 0.7527061385597419 0.8567721188687056 0.9552569020614251 1.0434905717668435 1.1186777603019373 1.1796833039222876 
0.5321103904468968 0.4644411874860487 0.41493666558494935 0.3907716733653138 0.3960317006825428 0.43125530821747504 0.4935418313428879 0.5771850298343145 0.6746959641761333 0.7780104000899891 0.8796509507375417 0.9736360800811527 1.055991057926283 1.124805469241422 1.1798782351749875 
0.5420604741043658 0.47594644823781657 0.42901575926545055 0.4082619601240485 0.41732712470764566 0.4561555752574932 0.5212367795891678 0.6063693681660011 0.7037836614989622 0.8054001540501908 0.9039875127323544 0.9940173254902909 1.072085554984569 1.1368659522973057 1.1886579311762877 
0.574194847152926 0.5094333716004932 0.4638894861397994 0.4444027021827137 0.45435072068742843 0.4933921996415851 0.5577990537357075 0.6412883911975283 0.736175771210661 0.834621182191817 0.9297360349507572 1.016362428576517 1.091414256655359 1.1537656496581326 1.2037651182896898 
0.6270396168189852 0.5632574716963435 0.5176557707182122 0.49705300760140414 0.5048236960387553 0.5406898492817995 0.6010876817807891 0.6800063702913387 0.7701148243275108 0.8639515335224676 0.9549582790692489 1.0381873610988483 1.110591615643246 1.1708986011119942 1.2191549831112707 
0.6964264402465058 0.6330305485700382 0.5858733993268151 0.5619276683983715 0.5648163885776133 0.5946117427231296 0.6481905649702541 0.720037323951633 0.8033117192270459 0.8909650801631039 0.9767018541977096 1.0556341763562767 1.1245552805383716 1.1818430830549453 1.2270799353203419 
0.776157894948601 0.7123702484890961 0.6623867398869226 0.6334668550275028 0.6296258176286019 0.6514161911304347 0.6962523714203964 0.7591658545617791 0.8338115175842494 0.9135185197124821 0.9921961383061394 1.0649577848631502 1.1284012016022706 1.1805614121973718 1.2206180623309364 
0.8589538673560974 0.7939589087933459 0.7404162798703817 0.7058793405342416 0.6947128235367889 0.7078633416453185 0.7431682957924141 0.7960858650136652 0.8606659058803553 0.9305605362567325 0.999894354423312 1.0638689143344253 1.1190489624158837 1.1633511784150325 1.195813597788837 
0.9375077305601877 0.8706889148144523 0.8136568277672398 0.7740839011015123 0.7564213385078637 0.7617004532474599 0.7878761701456349 0.8305825661730145 0.8841120772057766 0.9424154563015072 0.9999471422111286 1.0522397756155217 1.0961656761962946 1.129914036777366 1.1527649985464552 
1.0054619525886226 0.936653097970766 0.8771253950803447 0.8343041290022513 0.8122680378730615 0.8116539662120957 0.8301091971623392 0.8631374820746202 0.905132616063807 0.9503882063022181 0.9939100248277295 1.0319250106865172 1.0620602669033654 1.0832373339468746 1.095376501701896 

0.5776017717187215 0.5255176909644558 0.47178754500414377 0.4166764045043835 0.36139389374828645 0.30837651424916623 0.26137847655759705 0.22534438165518178 0.20605684770875432 0.20957250927244442 0.24148300488669827 0.3060646548478011 0.40540975659040324 0.5386586584318162 0.7014672379932376 
0.6153587813685961 0.5542235032499497 0.49429992148581703 0.4363231932538397 0.38162957051184776 0.33243362691084655 0.2919543409806016 0.2643571923334519 0.25449416185382323 0.2674411522945823 0.30785555381519436 0.3792062868131104 0.4829621389485057 0.6178553513637646 0.779357294463565 
0.6465151527149878 0.5777112376463952 0.5126869797094967 0.45275034678787174 0.39953186396711715 0.35520997588060266 0.322621392592382 0.3052266618802253 0.3069102161495487 0.33160693019822485 0.3827672138951662 0.4627009435681553 0.5718744260870491 0.7082674011312146 0.866919326305015 
0.6680114898861662 0.5934118808316785 0.5246890009126917 0.463899301899565 0.4131892020511191 0.3749107615973366 0.3516623922223464 0.3462374541983022 0.3614645654053804 0.3999279365516202 0.4635687387852228 0.5531914069993505 0.6679296842578385 0.8047595112446799 0.9581698462413234 