# vtk DataFile Version 3.0
vtk output
ASCII
DATASET STRUCTURED_POINTS
DIMENSIONS 15 20 65
SPACING 1 1 1
ORIGIN 0 0 0
POINT_DATA 19500
SCALARS Image float 1
LOOKUP_TABLE default
0.8574533265626891 0.7541764462102128 0.9925216505519904 1.0109464549780773 0.9694577992771095 1.0831053260530983 0.9044242446627966 0.9972779555255611 1.0608697679455947 0.9500556198088438 1.2404730126679813 1.4904144789045906 1.2904840329144942 0.9189045025450701 1.0525809334586267 
1.2140301287984325 0.7815962686574375 0.7646235257799963 0.8805420391951022 0.892411484235309 1.2328730507041998 0.9151920303010005 1.0356023785475634 1.1758500089391857 0.9499344425839783 1.0153693346592405 1.1066605100998512 1.0506218079560938 0.913300030380055 1.2754145099694594 
1.184102590514706 1.225921434549747 0.9666876716776849 1.0900446314106254 0.8544850790081621 0.8645582713527846 0.8606861118751277 1.178260659035142 1.140054298124403 0.9771335957633065 0.8406615592436767 0.815554853570812 1.1264033233216144 0.9477055759031148 0.8054214864227758 
0.795832058327441 0.900821802955885 1.0355539889042495 1.0300238392017378 0.8167518850246442 0.9866430325633634 1.347232053154024 1.3853288921625184 1.016626263203414 0.837119420571362 0.7274927603784842 0.7600212771060246 1.0824312972002186 1.297443050223145 1.2691982150130576 
1.0426975999227788 0.7033598305937392 0.822638922010821 0.9218240043654286 0.9643606643554657 1.0402636766731248 1.2185002144722388 1.1210185455902184 0.9751935084589055 0.7570448828755456 1.1087102190311118 1.185598985052109 0.8510991617868182 1.232477591546247 1.2292430299181758 
0.39449864910191423 0.595521904289872 0.6856387609034579 1.015018663771199 0.7374670385404022 0.9596546237388419 1.3343049101583102 1.1439591012862802 1.0041245278105413 0.902154633482881 1.0950959464688983 1.0525710193167572 0.7424028636398025 0.9721770080232329 1.0471772840535392 
0.8207226449152107 1.0640983733684617 0.820999725453991 1.1562341630492017 0.8210712028876892 1.0078872246986388 0.9927894381543622 1.1803878169852822 0.9920877223296608 1.0904275215881725 1.0536897290767149 0.8675440182249843 0.825379503763027 0.5408300222051525 0.913739171309363 
1.191677221636288 1.2142518421055237 0.7672597006802345 0.8551341018618871 0.8777992279913104 1.0557332296632205 0.7551556766791934 1.0403698771847896 1.1838549759874462 1.1467577403208695 1.0969965311432404 0.8663458744415221 0.8743429556505533 0.5655364260244335 1.0241201375784679 
1.1658483249148117 1.071189899947502 1.3141581223940018 1.573434022105761 1.3911596892602922 1.2478803270883234 1.1766644060850078 0.9195859317416198 1.2454192917425282 1.1020934232464772 1.004953389650696 0.8548450669470709 1.2443215164568344 0.943306356720464 0.9105778319599063 
1.1293641122108105 1.1292324670141756 1.3079477610993295 1.4189407421522962 1.2886928779074576 1.1377688385265976 1.2556051950667693 1.1478888088166312 0.945739972014609 0.5210218207234849 0.6068571757116689 0.5940610029276913 1.1874037520199539 0.9178342084770742 0.7875681933634854 
1.2681205571113503 1.2411782303161634 1.0035645053371804 1.2260681825138002 1.2675380065487623 1.067869719215593 0.8242584470493284 1.3845894445767148 1.3957537539115321 0.9400132586684155 1.0433377186641843 0.9665471313765495 1.048911240792668 0.9142200013283609 0.9432047997022073 
1.1295528053286992 1.10697840789901 1.1173381613253746 1.1238388076495858 0.9654759140070684 1.0283785831515626 0.6853659149145352 0.99723557722715 1.3340525240441856 1.077400977931964 0.8770664969794669 1.1350216680408096 1.0017508070687104 1.0714277443991183 1.587110349265832 
1.2268055995127132 1.189100640237112 1.1528838430277402 0.9259383426179104 0.9843340442781763 1.015009763701338 0.5789812206571336 0.640566935631576 0.9067714423693112 0.8703705265375177 0.6444956292067543 1.012074380546939 1.2054892240873067 0.9966958432139406 1.3099454545305056 
1.0678238296329605 0.8392089808006422 0.7357287761098172 0.7896911457103751 0.9593780288548566 1.0439362403389127 0.8211803256158499 0.8681755239753095 0.9062713655950234 1.0817164177073075 1.1122414273928376 0.8893817674971031 1.168309372863741 0.9649464388668667 0.8237642058373577 
0.8315438723912516 0.3333312077301098 0.4763590941203253 0.9904420125679304 1.1932551654476151 1.2020515613673064 1.0412086135047156 0.9086763448545986 0.8716457776869448 1.2518873699485658 1.7324375562243466 1.2174380156326552 1.0403832614241044 0.9816683993136129 1.1751778495863163 
0.8412771332821956 0.7001426878705965 0.7920512393415722 1.1538924342010841 1.1447295142653753 1.2978037077086733 1.369550538254505 0.9793146536651702 1.140044792602462 1.139954335905354 1.449870067054131 1.1994340578413525 1.2756678267266544 0.9923489033858075 1.137014557037322 
0.7336722557216291 1.102536362604236 1.1302683187446412 1.131264852860386 0.9400923670951782 0.9590159623719675 1.1144770352236049 1.0552221459067006 1.273176297853407 0.8075982561304327 1.1757471759398814 1.3531907327327717 1.4195345961243524 0.95243747756446 1.0574919444084858 
1.0279709013085725 1.2585713492104553 1.2473656126413666 0.9761972587074281 1.0392669650238362 0.9642887051204164 1.0117621367552294 1.153199138839515 1.3323708353094539 1.158516466380215 0.9289073515101138 1.0886554749588597 0.9483232132623534 0.5160565698011917 0.6696588437847223 
1.1589137877411801 1.2580243196655387 1.1684848264340266 0.8752322901154361 1.1030418546097578 1.2126283490237226 1.3318304234490141 1.372514844729525 1.4477821722510056 1.458011750102019 1.0873627369329886 1.3065425409495284 0.9219846213524051 0.587106266633345 0.5299481346569785 
1.1890243985781948 1.1801045272545057 0.9117936143784592 1.065749272853583 1.0789554012225928 0.9494232695082951 1.1412624198597507 1.1260282776651742 1.2258068201173737 1.3006211489218675 1.1853218525209932 1.1653143227574059 0.8497779625783806 1.0136897261799935 0.7764946445392064 

0.8763911080529301 0.8796938811836752 1.1294887672202993 1.1420538568580554 1.3460714878329771 1.0527616141476157 0.9525086379105516 1.1493878240549855 1.349435778105232 1.2995554192615155 1.5496399255633 1.2133648266599526 1.1328175625714703 0.8165426579784157 0.8842127121963762 
1.399352366296097 1.1593201838017315 1.2508481450574516 0.9757218731904899 1.0305814739770656 1.188659520579325 0.9681288784175297 0.9054564230267781 1.117642516017208 1.0203587234099323 0.9690861254110879 1.0964578980393922 1.346580357300667 1.1483753844562787 0.9145700790701885 
1.1289912866656984 1.2767718617275265 1.2776361711344912 1.0333904246932946 1.098521724493146 1.1228004039687587 0.8359095665992125 0.9270079711874267 0.9464026254008755 0.7849225248667118 0.9005400786765685 1.152208448680283 1.1692035695813614 1.1035829756246232 0.8388539034061508 
0.8916526960246549 1.1556399153639154 1.1680945688671525 0.8839324856790706 0.9720259910144666 0.9862504827614964 0.9361945661787976 1.1161707958651252 0.9931124970868419 0.8383791245338681 0.7357065656422395 0.6903230567864054 0.9855420638954706 1.019856541717429 0.9803555444844386 
1.3968637280420988 1.18832162765613 1.25056382415114 0.8532186561876828 0.6421935747549717 0.6904322231010798 1.0821388257945848 1.1906280116174617 0.8277190726678874 0.5578164314421934 0.8208439044687567 0.7352686337480162 0.7148921271897386 0.7971738299652777 0.8137744339696914 
1.2923908214700373 1.2986838044683353 1.3882413548669363 1.0408263870014471 0.7694167975947267 0.9425396229073995 1.2864847396619616 1.2908582400817188 0.9635186455950965 0.7728922880016005 1.1213028385349448 0.8333180820179242 0.3917736937750729 0.6104116303836084 0.6718551772942215 
1.1060137446401146 1.0185790905752359 0.9588182209893744 0.9690272725142585 0.7251367083934747 0.8642643349777172 0.982742027533913 1.1362032789565017 0.879950061220337 0.9908176929014443 1.2185142979569115 0.8505156334646058 0.6231137222039718 0.7834103344451863 0.8350395525506511 
1.0939716714798196 1.1257687497459061 0.8036961424390379 0.9011743146124753 1.01950324359517 1.1584002035563334 1.1895753456396163 1.2595464022032035 1.4044117523986666 1.400403711816636 1.13273581055759 0.8232607797688656 0.7940134350527218 1.0530918509253895 1.1728209771083329 
1.2017264486666839 0.8865410641267524 0.9083810255283385 1.0288365352568138 1.267292413553543 1.2957442095272564 1.3877123235086248 1.288958664010534 1.4474771714099568 1.1889974340491034 1.0478723877984846 0.9808624052607298 1.087740285853859 1.3126041040275078 1.1111260323931245 
1.1645674814372329 0.88007652788955 1.1704859157095018 1.058339983238283 1.137414154482555 0.9287894861047417 1.0239451380865383 1.4742895573718218 1.3109335928902464 0.7917568784809682 0.8422221550627125 0.9486517801622317 1.1502802973693407 0.9886427749565284 0.5825223992275824 
1.0458903064400233 1.1459900664068239 0.8313145858279252 0.6958536101073428 1.0972187883079942 0.8556788513986495 0.8704193212797167 1.5554779728523516 1.2841091205308743 1.0506456117374738 1.0809155122714735 1.260425375138173 1.3421469930369787 1.4358528340704555 1.2246400835964544 
1.043441015170572 0.9504855506717104 0.769982878259387 0.6697508947326557 1.0288511667171423 1.1214005696057876 1.118817408411944 1.3047212972244353 1.270051564594267 1.4524970330691624 1.0391791529811105 1.297470172255475 1.2896864654666043 1.3865367863365319 1.5770394289273935 
0.8551222059354421 0.755275465782802 0.9503926301460094 0.7944415272420356 1.0495178665144038 1.2625364494391187 0.929284783584545 0.7949349835589042 0.9074319366670627 1.1103145171172002 0.8063486996258387 0.7947849906620907 1.059680041326615 1.5814212125353602 1.4450418936235214 
1.0077997792703228 1.1230000483738103 1.2112231117099945 1.1714584281491296 1.331213814693672 1.3165866731815203 0.9174058870182834 0.7761260712575206 1.0100735144219126 1.2618247854472888 1.1385019808417671 0.6678153897415943 0.9173624131389592 1.5618690590232667 1.0839028033404325 
0.9120018034329309 0.8411970573548078 0.935307158324459 1.1221493237931606 1.547984327705138 1.3912808242173629 0.8561821147656639 0.5222869180810136 0.8696979569736034 1.3550187549304022 1.531906659561165 1.3492330197073412 1.1493627156846127 1.084716455061662 0.970084370409178 
1.2403512594435557 1.0643313390109264 0.9865475148044281 1.303650026911975 1.4621789838176265 1.2334795460428274 1.1319338768392941 0.8377044117957357 1.0849058524308675 1.212134460790104 1.542124376398403 1.5058227761656275 1.210415253663236 1.0426578856568232 0.9478009723971863 
1.0094772425213616 1.2408726027610284 1.2365113545270932 1.3024511467876434 0.9792299213219265 0.8047828100374255 0.8059157041072172 0.8355220602189675 1.1629186802899585 0.7481908334213403 1.16943985611934 1.5449080589674804 1.3930515923646416 1.0994846231397846 0.5938103788843199 
0.7049739735734983 1.0799927366858049 1.434413341080578 1.0873608177355125 0.7689701390917076 0.9126471279906179 0.8225868735735566 0.8899606283110649 1.0893406966339072 0.88754594575227 0.8071586279542496 1.0077486739466548 1.0550176652422767 0.8400587288182276 0.40796901523653384 
1.1051575819108257 1.0950580685650888 1.134295073936726 0.9154282885904994 0.8512676420535046 1.1250809596883637 1.1080154783947909 0.9807019807919796 0.955455080282123 0.7664755160377206 0.6513293368817723 0.9879075225366531 1.0437472703822155 0.9722938140266764 0.6054458769281862 
1.0614881681491675 0.9900502608914101 0.7787167698962238 0.8922884962361775 0.7221326263784944 0.8656726057251107 1.0441725369742347 0.8250612590804463 0.9854884746369413 0.7585575396556139 0.5948846231946274 0.7551795771361682 0.7903025263722263 1.117207985652302 1.0037880510353054 

0.840896482057955 0.8135842174177649 0.9253065705319847 0.9264783910937564 1.135535880396534 1.0722703936514162 0.9377001278577457 1.0833859532606602 1.3695937590673248 1.0240320842978998 1.2270727262883534 1.0360956579395 1.1187297316504494 1.1086743096934109 1.1807920219832853 
1.3663860904316596 1.411830090028576 1.3891572744914094 1.0733354753934703 0.8028978250670519 0.8573097579344773 0.8778257017145008 1.1003401561445756 1.3558780101238148 1.3368000944084544 1.1011143316625702 1.1545540762526576 1.319006911146466 1.124407999780778 0.8986225790130371 
1.1816783397704596 1.3338520111774044 1.526494757288421 1.3853037562808799 1.1226473159733046 1.0067605576747767 0.901677120817185 1.0909154815615048 1.0402771419787022 1.1062726070628088 1.0764134960203506 1.3864459487492526 1.3078357053765712 1.2566492354140775 1.2262938270485588 
1.0422405947749762 1.168793645837483 1.256060207034132 1.0188105590836565 0.9617542895980826 1.0116827569544404 0.6911942624385032 0.9427218629333816 1.0478301876305132 1.0542539228152188 1.1773221965042542 1.0632860621506195 1.1555677541618765 0.8128643834095121 0.9974009667611248 
1.365310138134242 1.309615147733201 1.2331492451229782 1.0107321661572726 0.9611097322313386 0.9954524690457447 0.9350629810376329 1.1078985661470588 1.1619460823036358 0.871822821785128 0.9477715466341514 0.8346667310969913 1.2215203875269534 0.8866727206315885 0.906822518502012 
1.4280396950141363 1.3622548654299957 1.2368447678343208 1.074167813939703 1.0725605621777898 0.6617773689376717 0.7940775473093955 1.273842364513836 1.1779689776274467 1.0892842590959244 1.5197206244564674 1.3071703312095304 0.8196715853593141 0.6925382021912081 1.1008724085023625 
1.335256928000747 1.1688522992228843 0.6985763459578058 0.5614733084605324 0.754700903021319 0.5729509263184474 0.7296019923198158 1.1909075367701698 0.9220174585912841 1.0459519594298714 1.394403340748524 1.270856397530066 0.833837031746061 0.8144307461073129 1.1694735053446477 
1.3904858605824124 1.1794820169057167 0.8346001457045591 0.7223816903907073 0.9381407261314493 1.2785910249820351 1.5301233623078423 1.2939676997877465 1.21055385318295 1.2672018364083208 0.8466963974911561 1.010252095972944 1.0023620168587082 0.986795228355128 1.1297517502158883 
1.1222980492009078 0.8166212476561477 0.8266512740649904 0.9849626638242263 1.2546558861174424 1.2232659923368487 1.355999337479728 1.2122253203089355 1.2075091845833386 1.2216238286022814 1.1326286840717739 1.2082536723132542 1.0197833646921701 1.4200083573576554 1.4566530695576858 
0.9911369184200164 0.8135014258543898 1.1274711240147857 1.1980993110865654 1.0780905160476366 0.7285149732187831 0.7366858209899302 1.0189603809250039 0.9148247771317268 0.8700152947324533 1.077521515436708 1.0337949042395347 1.0359597872549569 1.2657526510476635 0.903664999743652 
1.129394015354968 1.055804365136842 1.1470112442948845 1.0260690167057667 0.9707014016563588 0.8518038111793901 0.7338564728615302 1.0639256136750461 0.9938130537832325 0.7961818752159366 0.7878510392760398 1.160911666845078 1.391466452923132 1.6357725544828814 1.181145417671588 
1.2031185502727577 0.9523651287431985 0.8661068809499963 0.87911474043746 1.2197963502951 1.2829628833624829 1.2473310068566432 1.2588901163860156 0.8917586215262111 1.047847983231528 0.9089522946891734 1.2092676212046714 1.0443322427128368 1.2076072419436408 1.4198199202846309 
0.8946090866606488 0.7914073852020973 0.8692981603258452 0.860773848553356 1.213288834566393 1.253144522165612 1.2508615857987986 1.202509275710173 0.8831893731722639 1.257577515981931 0.9952358225609624 0.7522422262884368 0.6227209556208877 1.171168002659028 1.3001779924754822 
0.6215052204666762 0.8622914126708645 1.254943369958405 1.2101524208207395 1.1386971492619908 1.0312390338237707 1.0093253726808826 1.129982637668295 1.0540874375138458 1.2820531360154421 1.0113470971576046 0.4358074206421573 0.47838659543951323 1.2742668457576536 1.0603637229119411 
0.8334827753626992 0.9164654355004271 1.2599413438345728 1.1721136636665508 1.140485127748328 1.1601946478539917 0.8704384664791158 0.9928813732841911 1.0109023278722706 1.1476968506060479 1.1688909514098622 1.142947522532853 1.0316147386896846 1.0739388304865825 1.121027703770432 
1.0251267753629103 0.9350707693356629 1.038312962031849 1.2240612372013793 1.3522130119865445 1.2183512089359547 0.854415327429342 0.9571905916914145 0.9562997320419793 1.0742210804704289 0.9932147946654446 0.9756909382523443 0.8362934317916875 0.9775662675420083 1.0808405623983415 
0.9565791092247597 1.0142825377781994 0.985721278995127 1.0786780196860881 1.1103512706021303 1.191132902421024 0.9735908871785015 1.1435936718425772 0.8740850651558583 0.8747282945986743 1.0158745273754795 1.0302850938436552 0.9270736722453382 1.2144321337498967 0.9435032587295982 
0.7693521744202334 0.7955967409371658 0.9863283836608288 0.8843405449060686 0.7159522300263459 1.0990114621813731 0.6775503870029318 0.9185887751893125 0.8122522615025826 0.8842041101142671 0.9475862208512575 0.8397139360655728 0.9894079178312325 1.1607360667627247 0.6811281881741595 
1.1030932269130604 1.0814409522179695 1.2553829318029204 1.0162670305338772 0.5851273016022471 1.1240416356064613 0.8382856481603354 0.873222636951883 0.9908207300873253 0.8496564647339109 0.6548219381695306 0.6847640702646696 0.8845753700387707 1.1589823876600753 0.8306672460659537 
0.953921139614115 0.8879226858148872 0.9495209591240295 0.9108542623784674 0.6663807304989436 0.9303514403381762 0.8521308448009938 0.7277538649740785 0.6439205307105866 0.7067801441472938 0.6509257187404078 0.6475040193270376 0.6788254654533844 0.9255957562836151 0.8351932286532475 

1.069260946651081 1.0241505106957098 0.9161058634033227 0.7402419029380658 0.8140081100097378 0.9592386104581729 0.8082257818338096 0.8274061881683353 1.0971209579402097 0.9690203900628026 0.9267996424259087 0.9728572308725405 1.255617847146403 0.9963565540939949 1.0630801541248605 
1.0745532700017906 1.1279951734042895 1.092746869403786 0.9238905906627912 0.6757731062720908 0.9485135737251595 0.7869464148535431 1.14055891392921 1.3216497188719705 1.393950513246325 1.241200057249373 1.08507626139424 1.1161060942401408 0.8560413175352113 0.7783280321017384 
0.7561406899549291 0.8149833500817024 1.1531641077440427 1.1214508529891432 0.675205314563909 0.9611983996404021 1.0296553939007502 1.5207390119378486 1.3444098504408488 1.2972550759196786 1.237747621954859 1.3270563283207608 1.0847874327816058 0.961800039716603 1.0066147308065148 
0.9732892456648761 0.592026761786201 0.6887265446166027 0.7730200701198421 0.5601788512007675 1.156343822889719 1.1666377375698131 1.26093932158362 1.1711360457135722 1.0761385694366228 1.2956709357987521 1.457534742974446 1.4278847693660963 0.9550649811273818 1.161685416809353 
1.177203315058419 0.9651831078759502 0.9255405922792947 1.0955745277913482 0.9457312866880407 0.9566922299774913 0.88111282915146 1.0637026289764855 1.116117899710984 0.895766237311161 1.146805206459687 1.3401291833729083 1.5718428023873978 0.8339350306355604 1.124300213035248 
1.1313058161266452 1.0855781277556735 0.9055292920767238 0.7949789115836986 0.9840501169097352 0.8139407867586513 0.6499956734004657 1.0581513184142457 0.9786289684759162 0.9327129878638197 1.2625386883861827 1.2506934807530554 1.2949505567546735 0.843656963478912 1.241440176243983 
0.936033044997897 0.8873412912612535 0.614111125591287 0.5157458321046717 0.8885143724635967 1.025292653847711 0.9360011644607503 1.2779674334792304 0.8644344893290246 0.8334910325003435 1.3077208612980338 1.5117073628160693 1.265971866236204 0.8574546221172594 1.25072702521088 
1.0533650442860139 0.9986160500945253 0.7701993864126396 0.8143315663039121 1.1126193959549153 1.444006935820697 1.3875891513937202 1.0543179142341041 0.7458911743247209 0.9267337584203732 0.8709555275228208 1.2488985509663961 1.1937277116094511 0.6997789855927083 0.962683329928925 
1.0999110701033714 0.6804270567603745 0.6743279024770915 1.106513472262863 1.2348607639132116 1.3120024991536106 1.3264626075791648 1.1332745916932427 1.0655732780392586 1.1663286505173127 1.1199473031545206 1.068813925523122 1.0045027218049443 1.2910416277185022 1.544032390500725 
0.988795949229346 0.8260145074208082 0.7435916390289296 1.0498321616200297 0.8351585659786909 0.8176574046360943 1.032270926743367 0.9889897007519719 0.9592036147297877 0.8626730027930797 1.2369661907154388 1.1000015224676456 0.9370698983520092 1.1692525680461745 0.8935645947776951 
0.7972227668120963 0.9867875122485071 0.9826645669625661 0.8228529962901499 0.5473357099811813 0.8470203619292855 0.9845049160103455 0.80575288551345 1.1700678518809529 0.9271527690694066 0.9271952753073313 1.234214586630268 1.2474007730427477 1.1471697380172474 0.9478969850515873 
1.0611450147888424 0.6791076846294367 0.8821567281772252 0.9817075818149587 0.9670788268875382 1.131825794608201 1.0484305285138298 1.0317310318417316 1.2079549167762926 1.259073875413057 1.049084738285447 0.9481489886203011 1.0472214631514984 1.07340688492972 1.171257039467441 
1.0303761457727383 0.745997121154693 1.0643212585838209 0.9853618332744639 0.9306674310453211 1.0812382541597525 1.2038809473255159 1.3660586046597445 1.0755009636823663 1.1011160072720336 0.9907511033949836 0.643341522045864 0.6627156940385018 1.032507239502305 1.2067302151878094 
0.6240015324801866 0.6746499755954494 1.195464257998344 1.1750802709925707 1.0474951125265581 1.0856532225744382 1.0982080954424012 1.150721270826407 1.071237351491483 1.0621752400726072 0.7830844889093511 0.5117319817357804 0.6338612904606068 0.8423386082441591 0.9200472943292728 
0.9266447095516283 0.8721020415189817 1.2825781876683353 1.4264165939728068 1.0440951362132507 1.1150736231798672 1.2449999954163162 1.3536900432533086 1.1904054698256967 1.141595842500984 0.9482833734304116 0.747104257129981 0.7666681039999177 0.5561525650512609 1.1251196852880225 
0.8638312683263514 0.843038362499652 1.0264412506948144 1.2666763968219483 1.109496197568242 1.096654304622421 1.025079385759005 1.2273877915715357 0.9437967632460127 1.054188949152433 1.2198026576520946 1.1797041080294732 0.9718410111962744 0.9020529697763588 1.249824331126298 
0.7490166601726678 1.0106118175520007 0.8732310689261328 0.7097091268453033 0.9677955886549203 1.2994815707687706 1.179561453330109 1.2285752684694289 0.5894210039466882 0.8588699957390185 1.0196233402837012 0.9179779822308429 0.7283162687258015 0.9683983173464485 1.1264077864678492 
0.9344915406377884 1.182377512557617 0.9403172457284804 0.724838387687957 0.8648072564836793 1.1478629980144948 0.9889594548016207 1.176778426774781 0.6578175971721368 0.8248258260876413 0.7344584561887912 0.7302530425271985 1.0390253601681638 0.9941996035712273 0.9254468063627728 
1.1903343791066898 1.2584304256071024 1.4098997935223312 1.2281185239892418 0.7837854091447877 1.1394174130219041 0.9568666325603509 0.9750149430724174 1.0859630789000572 0.9530996490060555 0.5156214953886156 0.6123783256610433 1.1765843313900448 1.2960042289042 0.8996985886230141 
1.2355411167638846 1.0188076896228269 1.2683443415778861 1.3816927373070136 1.06133027344802 1.291868632989604 1.0178649688097985 0.8579231409667566 0.7925153689827016 0.8275021283536586 0.8091993152989174 0.9051889310995506 1.151037749759561 1.271493649245733 1.0148871008579392 

0.7960161674302615 0.6072380139908935 0.8936861501064808 1.0211011553085778 1.0784848428347735 1.0949566301945708 1.1525100182653614 0.8433271312494083 0.8973017194687156 0.9455120150605159 0.7999125195150002 0.7298656929438219 0.9954558500818236 0.6564127237729098 0.9097064858920703 
0.9055592289176364 1.1848167620427803 1.0666220731471823 1.2929424902135518 1.3946997686891243 1.2572793931707114 1.1025453268662126 0.9120929151272754 0.9218054075960698 1.15991898875547 1.0477968868888168 1.010502342977352 1.215086123631571 0.9569368432096822 0.8829152133143485 
0.6633165359571576 1.025879952322609 0.9702881349522974 0.9695560576556927 0.9934238340432449 0.8820612304484508 0.7355281395203807 0.9813359512883614 0.5786426486632927 0.6747159914187274 0.9604120250754015 1.1880108252955217 1.245223811465064 1.1385755377176034 0.9672429168490952 
1.196827133300314 0.9068279186413564 0.8794161390367123 0.8411016265244737 0.6442967355760105 1.0668670509479663 0.9387847768623723 0.9731224847969107 0.8320377749074909 0.6414891478447948 1.0660588841262262 1.465476604718134 1.4080373684437115 0.9183715635777514 0.8323413022989805 
1.0402327273898329 0.8238276620551915 0.7252129531274367 1.0566888813311175 0.8042737447513642 0.621908556435855 0.5952592579589955 0.9417775455007377 1.088122474492928 0.824791656873338 1.085500843631386 1.3841271962788027 1.261636292937929 0.5751455748275992 1.038567227797576 
1.036521075489715 1.1888907727074383 0.8312982339604652 0.7876873139792873 0.7974392963667601 0.5791952406313043 0.5755940294937768 1.283723299749636 1.2596476922282283 0.9731971452216162 1.0764233270505712 1.2394416231872178 1.4444121501911873 0.680912869510611 1.0214385317646824 
0.7966774502407606 1.073718627899662 0.8934888552079745 0.5174418665661706 0.6520563296737141 1.0002807048499318 0.8537974189620325 1.2936179793990634 1.017903130174941 0.7320954780918484 1.063628023501596 1.0266210944614236 0.9610820110076325 0.5426280087227755 0.8509211563228607 
0.7772746364654323 1.0168609790947198 0.7472117973846155 0.7908644108626695 1.147725551595532 1.2608331341277552 0.9782384311168859 0.9790785219236933 0.6746709153971377 0.6961196918917493 1.0154899462073588 1.1538125237820853 1.206867344220743 0.7863034725509904 0.7283480258151342 
1.0656755343991975 1.096570024734883 0.6942262077857578 0.70827712182613 0.8231125715806348 1.0391644935082787 1.072249755161372 0.8784823982819563 0.6626593379732757 0.9362394665316358 1.0844813826643205 0.9640184590025567 1.1956774696668346 1.1487945081966602 1.1362372184822311 
1.137109092663663 1.2650733034155466 0.8392732776462234 0.7310274204691103 0.7781760172934247 0.9460694177621493 1.269339659776889 1.289652096686689 0.8948413429330629 0.7240383222109195 1.263910737024347 1.140737349771618 1.1273898618466087 1.245411185775988 1.004641466627974 
0.5300778766605327 0.8583494319205176 0.9300494917137683 0.7987677613178041 0.6897285088478873 0.9842201994261558 1.3874918856829535 1.1665119016408338 1.212476277027498 0.8732077537745703 1.0865828566042979 1.109885851687491 1.0832987310871671 0.9206998155517817 0.9116903321545327 
0.8333222636533435 0.5411071344556153 0.930349084673879 1.149217943291762 0.5617661778637018 0.7111208199683219 1.2327327069361849 1.1336296910435182 1.3278900989332472 1.1840141086399698 1.1718362175146144 0.9161376584541585 1.0083061188883191 0.7616653464258275 1.033146704233735 
0.9362985910281003 0.7073390955977852 0.7665458585165592 0.939065426946144 0.718653652767828 0.6966941570208269 1.1286278049387437 1.3771884430770516 1.0948136793121943 0.9831836925851198 1.2798470525196879 0.8379892480149196 0.7555474883530566 1.0056617364992748 1.3782118886901313 
0.5530950396977306 0.4801139600744809 0.6722805371508337 0.8676533362224685 1.0663289229091466 0.8401850478801636 0.8417188269154836 1.1777967138964376 1.1612480752887295 1.0845906991663918 1.3120231287184667 1.0753007199787805 0.911760994539363 0.6916695933430955 1.0486968623505075 
1.0546454706578252 0.793738822157635 0.8455160147987839 0.9816349598791139 0.9578002165327826 1.0580875751444168 1.1254943263862898 0.8791298526150265 0.9827216220791382 1.029230476898356 0.8839833605441347 0.6196618491493593 0.7572160332444031 0.4725685901453984 1.0901534391642862 
1.0879137195213906 0.7543477117637837 0.6014071724294279 0.8991852947107275 1.0972037003443422 1.1962578195521447 1.3047902020629285 0.9538998840689128 0.681622629878517 0.7433157602551119 0.9547793796053338 1.1786299444514852 1.151213283531818 1.035828986223739 1.1054792665653947 
0.7270764460672683 0.8108829119336544 0.7588879725335045 0.7962594615711523 1.2812018176105149 1.3734831080508172 1.1223388201745392 0.8324927325261683 0.36630819586488506 0.6572441415725134 0.82535239939732 0.993110993898867 0.8832784845645839 1.0654149995622355 1.1039533502526373 
0.7780368810030971 0.996012314373202 0.921553542987596 0.8461177137446486 1.0610923738249953 1.0029946778339038 0.9320945510321827 0.7971856639695469 0.5141737547076697 1.1004419679456243 1.0858631374154488 0.8248600594699167 1.1227336184043777 1.313664706629904 1.113387021077737 
0.784101945433133 1.1316555207210448 1.435138925259057 1.6162295817464336 1.0657851395522235 0.5372019982327823 0.928768375307658 1.0144166777123893 1.1800420515382812 1.4373599587728303 1.0861830257607374 0.6933344962081269 1.2928945130957419 1.478211318917041 1.1010486556875276 
0.8490458384458687 1.1398441262414456 1.6650990339846206 1.656754802891073 1.0676149210704013 0.6543698519004392 0.7077963590081602 0.97146276329394 1.229215998205332 1.0500419531368586 1.0035941173663498 0.8821387668283182 1.2732036202109909 1.3578782789100752 1.1736314637446648 

0.9500649455058736 0.8165667840708548 0.9287163184868412 0.8203018511168034 0.9589678514474508 0.7329436966563891 0.9838837003159757 0.8162193755774855 1.0001006453741366 0.9192220017307315 0.9929713150895304 1.2285876654964898 1.1338490345898968 0.7017733014289043 0.6272362086894092 
1.1520008820508072 1.1579771636420002 1.117031873047611 0.8909255923847529 0.9510702400727489 0.8626609328029238 1.1417702420445668 0.728940096393998 0.9053427276125503 1.236868279430611 0.9597141740019 1.0019508300206883 1.195829498304172 0.9074683616906468 0.5797629161796612 
1.0524968999089572 1.1827106882802585 1.0452978920628415 0.8370477162386819 0.982023229238312 0.9258424371575052 1.045102340334531 0.8108824293752913 0.6886139104002883 0.8881845871576886 0.7480066758121459 0.9326040956905914 0.8856621856776064 0.744984864026933 0.572207111963245 
1.1781255265959654 1.1936461228897444 1.0504832336000158 1.0429894419026273 1.0520889710805759 1.093065776088244 1.0785804551676144 0.947310002092368 0.9303223972940091 0.5928133722680469 0.6151819856799133 1.0557600751412364 0.7882502446938173 0.5244098071440153 0.5189216424108534 
0.9986613237877584 0.9194307863035747 0.9966787466055458 1.3486191716142697 1.242321499278736 0.8980360359625104 0.7735645014618553 0.9108563506258706 1.1220833178889589 0.8773831267655328 0.8733447904605691 1.1833745699756804 1.2115443355276794 0.7751451476533326 0.7835827055059925 