# vtk DataFile Version 3.0
vtk output
ASCII
DATASET STRUCTURED_POINTS
DIMENSIONS 15 20 65
SPACING 1 1 1
ORIGIN 0 0 0
POINT_DATA 19500
SCALARS Image float 1
LOOKUP_TABLE default
1.4439946749561976 1.5251670585441848 1.5920390897349814 1.6435770852384342 1.6786729025880072 1.6969177454498858 1.699675055830439 1.6896826454813008 1.6689302194356213 1.6366717919632365 1.5900267136731827 1.5277965543936678 1.4551444231827677 1.3851718887276059 1.3348769978965485 
1.3886881466413037 1.4796151659820436 1.5593723664023895 1.6252772351235287 1.6740496760084516 1.703303182972006 1.7131732734366816 1.7061449388688916 1.6848496609909254 1.6498229280099164 1.5997891713470098 1.5351364791422948 1.462224733681221 1.3946044564914986 1.3487512174004848 
1.2778219878001926 1.371940489060135 1.4613038902323914 1.5411820700063283 1.6055443738624922 1.649414741638144 1.6711903887393174 1.6727619036227233 1.6571947072439617 1.6261018442426316 1.5794451455652547 1.5185523804786478 1.4500776136368705 1.3870627595837615 1.3447863449467916 
1.1306614025150217 1.21973954515805 1.312377495518796 1.4019880668704348 1.4798380538426712 1.5382593600216148 1.5736781041504933 1.5870590092356975 1.5814923194592043 1.5591809397082637 1.520746854140143 1.4678040526451026 1.4066480746365895 1.3493173974284995 1.3097644261139765 
0.9781492027673883 1.054407736243187 1.1422867694391834 1.234127317128745 1.3192468966434245 1.3878302865099532 1.4345519365476878 1.4593140427300728 1.4647914671467972 1.453142983613815 1.4249580615212811 1.381522929127784 1.3283681856820282 1.2764431590331018 1.238689108289798 
0.8536740286021516 0.9113614246669709 0.9863158061297526 1.0710421273581328 1.1542647524860126 1.2251745736003232 1.2773941888889384 1.3099016099911833 1.3245872203817108 1.322873037529781 1.304547781222778 1.2699658326095458 1.2236288491488638 1.1755554601100497 1.138238105805133 
0.7822650382719558 0.8182731484537162 0.8733446992445477 0.9415783710947876 1.0128086521088242 1.0767919909286876 1.1271616929692052 1.1623527291285582 1.1831986572027797 1.1896709696994776 1.1799144086096631 1.1526855362749786 1.1111809736419271 1.0646729521526739 1.0257768208799436 
0.7724888316981703 0.7861636658662486 0.8165385784289354 0.8606237199343517 0.9110741482114371 0.9598760994804391 1.0018875899700783 1.0355206080065609 1.0603604651505916 1.0742188258933263 1.072689213720659 1.0521536739534352 1.0140886097852742 0.9670399998379376 0.924118289735026 
0.8144881414832329 0.8071330411243074 0.810717322485843 0.8260835692508087 0.8500873976280906 0.8783995501766736 0.9082386679273661 0.9385379549987768 0.9675161828098062 0.990180109595581 0.9986733831379633 0.986152066740156 0.951790591505705 0.9031777843571358 0.853976849086757 
0.8849811986248958 0.8594986012067849 0.8372091000412376 0.8231123978886979 0.8190576568272008 0.8253960318179953 0.8425819464078234 0.8705591233729649 0.9061640883357361 0.941129944001165 0.9634102922088174 0.9621501609698483 0.9335740084403751 0.883882000079239 0.827046050993493 
0.9568578611720372 0.9176268485772521 0.8733676211439854 0.8328947454987939 0.8031323407230602 0.7895112555545902 0.7962321757578296 0.8246515209689516 0.8703665496817942 0.9216805327756158 0.9619641715110991 0.9758389170568796 0.9560578576717197 0.9069622348749864 0.8424130080332559 
1.0089270523255627 0.9616452403372449 0.9018338974100462 0.8411851985530748 0.7910890927376216 0.7618405188163976 0.7615028218368409 0.7931524422874051 0.8514883963200234 0.9216372861889254 0.9824897621652614 1.0140867919110481 1.0055128637592574 0.958935778948905 0.8876885629014712 
1.0315483762161404 0.9826504796407762 0.9151921471915432 0.8424053622518298 0.7789913886746425 0.7393583068121984 0.7351747965103806 0.7714337115984885 0.8424513012900998 0.9308342570556499 1.0116195924855536 1.0607329332830848 1.0638187712068885 1.02084175122127 0.9443388061326142 
1.0262542330607443 0.9817476964157436 0.9145517348183188 0.8379663444547144 0.7685277746728322 0.7236138044193424 0.7179149528368922 0.7583866271906263 0.8395513041836634 0.9424264098022455 1.0392183551980445 1.1026248077276257 1.115447260545166 1.0756942545725647 0.9950294277961801 
1.0007230795724196 0.964711553891348 0.9041044649942366 0.830933888777331 0.7620199487130995 0.7163486252591901 0.710792202942173 0.7541206221795462 0.8415818276071668 0.9535962672744194 1.0607155492457503 1.1334792635715352 1.1526043290877306 1.1145129654933092 1.030021235951832 
0.962761925007197 0.9362778790377195 0.8858192800557583 0.8211547491092027 0.7579824592745261 0.7155006254409314 0.7117690113700166 0.7570251570702853 0.8475779603099068 0.9641007244968524 1.0765571004780163 1.15429771001988 1.1766019358177053 1.1385605312274207 1.050086713023061 
0.917007724595909 0.8978009491734248 0.8579388038222433 0.8043622287918789 0.7505436046552884 0.7146390726171155 0.7148922353363242 0.7625364303938094 0.8550779634720896 0.974049821193264 1.0896202915222677 1.1706163500187796 1.1951991916205729 1.157055863749966 1.064864413075553 
0.8659003607803607 0.8494723769539566 0.8181830375277085 0.7759773433384917 0.7333754408716147 0.7065289533765214 0.7130278459454837 0.7646599095361751 0.8601727603592144 0.9823728659027069 1.1021534972990472 1.1881479628606195 1.2173358236942433 1.1815228595253466 1.0874344128536197 
0.813474962987815 0.7950770643567051 0.7692526689260276 0.7370448821348633 0.7056680880090789 0.688699089384788 0.7025666513422758 0.7593883298531262 0.8592855665142591 0.9867258594854886 1.1137317864599199 1.2088890572953046 1.2476921074913085 1.219297119656333 1.127428361515384 
0.76854577671617 0.7453661621788074 0.7224150804366952 0.6980184151691463 0.6760388754518604 0.6673268023601995 0.6870627390105924 0.7478144462795367 0.851450845425512 0.9846398551655602 1.1210357073841748 1.2293953420202004 1.2834737870355486 1.2690066867981646 1.1855710053385975 

1.4898269865029716 1.5865424183905201 1.663038626155254 1.7178967001372447 1.7513977094202064 1.7654172718710512 1.7633724718131778 1.7489057252910674 1.723419260139225 1.6844620834989392 1.6272828858974888 1.5497976232284727 1.4581362079921525 1.3683998973239464 1.3019543693303772 
1.4537114180394846 1.5630316417307153 1.6531865903266594 1.7206476798502495 1.7634046962645566 1.7817079817249737 1.778607203080135 1.7587558032932167 1.7256163292432491 1.679252528348055 1.6172322878804928 1.5390367794167052 1.451222392443443 1.369032846043135 1.3118549063557015 
1.365136396344163 1.4788744478305853 1.5782536461657486 1.6575269287077434 1.7119559687265222 1.7395161660114398 1.7421682591698713 1.7248949126778488 1.6926146022468669 1.6473329906072225 1.5883026314448188 1.5158048433840885 1.435958643561961 1.3623591496560254 1.3119782197426408 
1.240868844123916 1.348884046229193 1.4497801604033773 1.5361121926923818 1.600640971067334 1.6389482565192819 1.651455785080386 1.6427647485765466 1.6183771066627877 1.581304354590689 1.53156816430503 1.4694342210300135 1.3999642448487344 1.3348064203866197 1.2886785364053739 
1.1088801414249079 1.2014769861992138 1.2944394066932983 1.379715831390401 1.4485005836992073 1.4945346285414374 1.516740045351284 1.518859691958247 1.5061074034253301 1.4814389835537054 1.4446251600817317 1.3951444952004786 1.3366294929990779 1.278890023680642 1.234983490761738 
0.9995297023403978 1.0694038563561867 1.1451600595909373 1.219587363592376 1.2837963031389625 1.3308438250486634 1.3587164824319689 1.3701790268791645 1.3694591718773585 1.3584408144690165 1.3356366791192227 1.2990374602640737 1.2506427199570371 1.1987645342314708 1.1555912297951854 
0.9355776356671937 0.9788120525205606 1.0300307158998656 1.0843497211430768 1.134510318826457 1.1743954876399165 1.2020020246305578 1.2193245433004671 1.22913539033758 1.231361022233445 1.2223166152494898 1.197850544078305 1.1581708186392103 1.1104578108972478 1.0667767444042426 
0.9248335640793908 0.9409694124697128 0.9635165752347609 0.9911060924781571 1.0196731558781393 1.0454426774870078 1.067498125210788 1.0874697634576354 1.1064093199162328 1.1215636718083477 1.126207972145826 1.113415408283002 1.0813868303609113 1.0363961728603681 0.9909005786227143 
0.9583655965765522 0.9499298141054079 0.9434958078207722 0.9418239426695567 0.9451128595373426 0.9531180965683185 0.9669583008937872 0.9883542984118726 1.0165348953719011 1.045540408276548 1.0649135794205633 1.0643680690462207 1.039800841001221 0.9965946340912855 0.947801361633813 
1.0148965592498311 0.9867967115913691 0.9549055478565877 0.9260074339005564 0.9049269845181707 0.8955871914592868 0.9017814242226156 0.9257249625271043 0.9648744363358525 1.009793706179365 1.0458487521803637 1.0589546645368921 1.042398687035692 1.000522623793072 0.9468983382137426 
1.0693266305748153 1.02828337714048 0.9777262992031553 0.9276542891716117 0.887134306263094 0.8642721668495538 0.865801412668669 0.894755945272751 0.9470496328791109 1.009836414578173 1.0642266135796814 1.092176970948477 1.084183265467213 1.0433569419726294 0.9835565385054106 
1.1015776495094571 1.0554755327056384 0.9952100392731262 0.932650984278365 0.8801056035936188 0.8493331979427662 0.849935676105328 0.8860293232209319 0.9524184517993934 1.0332971509395017 1.1058816761306804 1.1483904633064 1.1485901314981533 1.1082659251279057 1.0413120818747794 
1.1020700184030194 1.0589965255875726 0.9986054538769593 0.9330393956864376 0.876469443199891 0.843407646152019 0.8460071777368616 0.8896920293316558 0.9687711128494129 1.0652737263437042 1.1532948044609967 1.207910746702959 1.2144951273769826 1.1735682467451762 1.0988832875791452 
1.0720624233712024 1.0389634694990932 0.986898923208219 0.926749762273907 0.8730875436258787 0.842110976453332 0.8480605132577697 0.897846078193953 0.985983255802548 1.0933344586896205 1.1919030429162407 1.2544601305872867 1.264498439948492 1.221440582201791 1.138791910841149 
1.0197628955980353 1.00097063091841 0.9629557522701062 0.9141454525796299 0.8682202507537217 0.8420204090354712 0.8513417998246706 0.9046736636388382 0.9973891983318667 1.1101773028298592 1.2140002862465074 1.2801717569354638 1.290794110582692 1.2443129417810024 1.153846697333635 
0.955088281901983 0.9512528124383368 0.9292780048196084 0.8944602985068202 0.8586478800958393 0.8384370768841092 0.8506414542187807 0.9053053287880551 0.9991361899522266 1.113447891336365 1.2190077206761725 1.2863010546752616 1.2962966629900734 1.2463528520193314 1.1488770067912335 
0.8861531485753117 0.8941288950595029 0.8863805782019851 0.8649443032667354 0.8393191590779139 0.8252168137047292 0.8399864649495418 0.895098880400256 0.9888558150489618 1.1037111225518421 1.2107633660517578 1.2799574817050083 1.291030925804348 1.239794770775967 1.1373125185466813 
0.818985990703133 0.8329242555168425 0.834724875145609 0.8234774993082997 0.8062146519764336 0.7974039553239666 0.8145731915055697 0.8704612804260824 0.9650718377585173 1.0822826455374956 1.1937775742215675 1.268956273220927 1.2859194787583332 1.2381494337360355 1.1344093416310832 
0.7596283039100781 0.7730309198709009 0.7785357345023006 0.7728467453866853 0.7607128997601109 0.7552726502699197 0.7740629652261956 0.8310104401633409 0.9279112511873631 1.0502782308662342 1.1705455757369618 1.2574778783213385 1.2870451398477822 1.2494978539158192 1.150157429136284 
0.7161383734056 0.7241722133592438 0.7282933392080263 0.723408861186743 0.7123342842664587 0.7070198765376009 0.7250525996297511 0.7816205107845097 0.8805069610335046 1.009164475001661 1.1410726811996543 1.2444612622916145 1.2929047536103493 1.2727236874934782 1.1847505355504597 

1.5326485450339429 1.6359486151706397 1.7127892101367164 1.7623994983563205 1.787384633331603 1.792580114083174 1.7837951268694137 1.7655765367547702 1.7384439273841452 1.69770760652528 1.6360274464198032 1.5495904908745817 1.4446111514002138 1.3393983003964456 1.2591481952903183 
1.5099701716200817 1.6271702558268308 1.7181528579483154 1.7795520419247532 1.8113325892875785 1.816676971205521 1.8014294583309947 1.7719517500273625 1.7318479006530252 1.6799000461247342 1.6116772607673986 1.5249519438834205 1.425793936896067 1.3306760386839893 1.2617669738181063 
1.4383568649805634 1.5603716907447711 1.660436039050392 1.7327368136937253 1.774291170050152 1.7859513219583465 1.7726960611182503 1.7417317445331286 1.6988143592229363 1.6453361863166345 1.578958149253669 1.4982314754426134 1.408311546058997 1.3232293105052522 1.2618998435035964 
1.3334736903196562 1.449217285896954 1.5498875216056236 1.6280091866682662 1.6780508638555358 1.6984517277098399 1.6927615300032688 1.6680812525105364 1.631138663204318 1.5847008614767581 1.5273880218819338 1.4576271000934065 1.3790874340095955 1.3032066133334408 1.2459857171855222 
1.2210038209343756 1.3199028024437154 1.4109346235357698 1.4862666857028692 1.5389213062942537 1.5655546153046251 1.5682864931654588 1.5534826388797156 1.5277431652768745 1.493907963640035 1.4503495353028915 1.3945130481376782 1.3282348861209643 1.2605724140118402 1.2053286305668087 
1.1281440166133492 1.2022579838764442 1.27381648166901 1.3361874330100085 1.3825368572399106 1.408963325876059 1.4167228345842258 1.4112531542530249 1.3982003033571528 1.3793183645551177 1.3516176438915815 1.3108239197837253 1.256776006680067 1.1965758479750859 1.1426916512643168 
1.0746755924102032 1.119883586175138 1.1646099961705727 1.2048873292376485 1.2357365721593334 1.254210388928847 1.2616354187105467 1.262696151007022 1.2615668399102447 1.2579890473141542 1.246665024946929 1.2209926552379757 1.1787461425405414 1.1255397936602871 1.0733087606767246 
1.0668078131949672 1.0829955419610995 1.0974638053564587 1.1099424842864671 1.1187329903101397 1.1232490819559646 1.125886586721475 1.1309357551557468 1.1408224234400879 1.152586655854686 1.15786653361193 1.1472369483555966 1.1163598918416806 1.0697425510463994 1.0193875230037128 
1.095958051280192 1.0865091891076504 1.0718259961888896 1.0556950491765655 1.0405091576316587 1.0290047466582717 1.0254240535322825 1.034018114713013 1.0553428619381693 1.0832752476712728 1.1058427856201254 1.110423345718755 1.0905119764700038 1.049749091980253 1.000558549116461 
1.1426943073750895 1.1136890225000813 1.0752280761139144 1.0347521174333867 0.9987802880942116 0.9736992100606863 0.9659870444158224 0.9800986225929426 1.0147164016290053 1.0603411554947644 1.1011047666167322 1.120988252216648 1.1112967869108998 1.0749333967695125 1.0248911052109202 
1.1840264945563388 1.143398426551249 1.0898115019721017 1.0332788362878955 0.983742597021887 0.9509355083434478 0.9435628311230836 0.9664141736747306 1.0164384759964635 1.0808488242285783 1.1399290804145106 1.1743150881350344 1.1732070692029808 1.1388663335718205 1.0848853183906315 
1.2010106337328854 1.1576703783688544 1.0993856478408257 1.0372106688676916 0.9832776932767883 0.9498935968371128 0.9476978248414492 0.9819081360792375 1.0480739189961108 1.1305518669449035 1.2061998241225331 1.2526588101454998 1.2572723891611397 1.2217890509753677 1.1603940282280254 
1.1837886576230732 1.146579320591488 1.094024911616291 1.036555963111553 0.9870387244377984 0.9593633776453598 0.9656931920191255 1.0118128965256188 1.092416294512133 1.1897521526087562 1.2780071722989255 1.3324394583719066 1.3389275709195738 1.29887191584301 1.2270318696564058 
1.1326164121341056 1.1090295562816577 1.0708482758655133 1.02640782326259 0.9879447357131349 0.9699704716264883 0.9857896114607837 1.04197353046219 1.1330567261543063 1.240126984364319 1.3356440049450482 1.393218228927552 1.397684434319142 1.35021345937803 1.26605665384227 
1.0553799468358043 1.0501882544622212 1.0317440431995382 1.0052712928831427 0.9813536796536966 0.9743730697760727 0.9985024697094211 1.0613719439345854 1.1580818645366393 1.2695189951527244 1.3673404234716706 1.4241674483637579 1.4240699579981695 1.3679230214760443 1.2712156087842397 
0.9635577931942558 0.9777599731894812 0.9802464527910221 0.9727125311887894 0.9635419044663052 0.9665380509304423 0.9965970083426074 1.0626666290836018 1.1610298903987832 1.2731634846062279 1.3706327545861874 1.4254728086293507 1.420973813469966 1.3573377917407923 1.2497527629312266 
0.8688418061848072 0.8993921852296939 0.919792383066761 0.9283902098711696 0.9313114761355714 0.9416418957750358 0.974964076056237 1.0417348171867773 1.1398410744067817 1.251870178262552 1.3496996764014533 1.4048560853276757 1.3994963552244402 1.3324265668825692 1.2176638501775958 
0.7816580875770291 0.8222769296982522 0.8542632117995596 0.8732663142687122 0.8834963708033716 0.8974405097822026 0.9314149739701801 0.9974973916472744 1.095405039270387 1.20910583989843 1.310936480814667 1.3717525393276269 1.3719968420095272 1.3081214121262232 1.1918433101739683 
0.7113039681668768 0.7542807117763696 0.7899016014172647 0.8120175060314029 0.8235122913735042 0.8365693499072594 0.8683481114261926 0.9326085103897068 1.031001437186298 1.1490109931072312 1.259488998897766 1.332433654586613 1.346016486894536 1.2933950987965575 1.1828045276188606 
0.6663040482204708 0.7047782244350594 0.7365203625805824 0.7544962093519555 0.7609295169789335 0.7680749150518916 0.794080264825728 0.8544298747240564 0.9527703559422915 1.0762372134981057 1.1983553304145378 1.288310432359438 1.3217776171742437 1.288028643883227 1.190886066541117 

1.5579331553940734 1.6585935076215534 1.727001311646645 1.7639636258963147 1.7750482064284085 1.7683802949789844 1.7522551745164212 1.7320783183042794 1.7073522954475315 1.6708983316290373 1.6123330554403967 1.5253710411201515 1.4152749736938257 1.301363944463584 1.2115688021344466 
1.5424446257947695 1.6565991552173873 1.7393176969285582 1.7883112047259404 1.80591646061291 1.7981622970947204 1.7732678057478952 1.738732066554813 1.6977147730655573 1.6471588251189218 1.5800634254959514 1.4918370043434122 1.3872989932201274 1.2833562419477405 1.2043178034133746 
1.4814763294550914 1.6001456574544037 1.692224419438785 1.7526562175212304 1.7803409904570309 1.7785278470824752 1.754345498584028 1.7162263806909897 1.6698438678287708 1.6152332910264016 1.5478867313309803 1.464143782823371 1.3677517444020268 1.2727836030046995 1.199857107836971 
1.3908915558560442 1.5032904029656806 1.5963239190829115 1.6631106106812417 1.699655922237513 1.7064351846649481 1.6889325220623839 1.6554953049098144 1.6130137765722083 1.5632629433238998 1.5030242149451118 1.4286678281299903 1.3423671428655508 1.2553070234130246 1.1848198323256018 
1.2948771124452194 1.3908085081565518 1.474576269452791 1.5388709662041253 1.5780431580854857 1.5905640640478431 1.5803745410626253 1.5551497980320148 1.5218852157848555 1.4827528310739226 1.4345827942859883 1.3729167738779169 1.2980373527812343 1.2184872173289212 1.1490177622219404 
1.217652957672426 1.2895457301609454 1.354282008786472 1.4056879625338987 1.4381326458875572 1.4494360792471137 1.4426918290960833 1.424810508879069 1.4021248716158552 1.3760724276732526 1.3424347673492587 1.2952124534603522 1.2326645874407887 1.161130260458803 1.0935977443651748 
1.1757462811368495 1.219808500662113 1.258402640075313 1.2878772751632868 1.304329049459692 1.3064935382525138 1.2976339563935588 1.28415311978886 1.27127139286616 1.2588211652252106 1.2406461638657054 1.2086635117531377 1.1591112258613157 1.0966382022512104 1.0332514786482698 
1.1733295263265222 1.1897155185936539 1.1992403311244657 1.2016766153031777 1.1961824387850002 1.183763716761221 1.1688290224475737 1.1576286497342143 1.1540061938775232 1.1555342108766338 1.1534283591187138 1.1371282345070117 1.1009269064131506 1.0482780606054485 0.9908670422999531 
1.2018587227696163 1.1941125509360093 1.1763597305192173 1.1520165377917873 1.123958649965294 1.0962675923899607 1.0751279195441885 1.0668680739533638 1.073747162368539 1.090585857040716 1.1054647437479557 1.1050838004760233 1.0819056817842871 1.0386206820862354 0.987110077529529 
1.2436783092596326 1.2178634848257097 1.1788905880017029 1.1333153336826625 1.087596100298915 1.0489979540530365 1.0256279851114645 1.0239019747960445 1.0443012121573756 1.0785676251398213 1.1113462905350544 1.1264876940887971 1.1147837573935044 1.0785334935439663 1.030216920199368 
1.2779690128522523 1.2417989755932473 1.1907339774983456 1.1333573861878437 1.0788760491545175 1.037216032271047 1.0181224723177111 1.0279389281294473 1.0652499689215733 1.1186223294606665 1.1692327051469955 1.19817162062649 1.1947965406788956 1.1613529304205654 1.1112449859326317 
1.286850779096333 1.2489036201753398 1.1963465251463732 1.138309655155251 1.0854659357569618 1.0494800076423823 1.0412120360605215 1.0667554603102984 1.1228658604181283 1.1951489195707694 1.2616011348913982 1.300873384042824 1.30121664123965 1.265133598705491 1.2072105685734087 
1.2597472023071523 1.2286469341184207 1.1849713761645848 1.136848598297365 1.095012944833011 1.071843009485753 1.0787867301523426 1.1216481603472577 1.1956923139217346 1.2841155257088537 1.3623326310082176 1.4070746563184025 1.40586579798094 1.3617080493187257 1.2905197301476368 
1.1950530276618987 1.1784596799102447 1.1522266960458665 1.1221594567083653 1.0978364716384776 1.091489202439925 1.114803982248544 1.1734784056305867 1.2618900366930035 1.361644922284977 1.4463814582261705 1.4915188553820236 1.4841820728399302 1.4279524850511232 1.3400353859798178 
1.099260117453848 1.1026596933438237 1.0992936113313578 1.0917846245131582 1.0877498013332607 1.0987439234587786 1.1365985945709123 1.2072890560573293 1.30506754076626 1.4108777981203975 1.4974193622040852 1.539334797553308 1.5234906736841887 1.4538548193845395 1.3485790984067743 
0.9845008426128167 1.0100354618705234 1.0309162123508835 1.0463115993235066 1.0615886105360164 1.0874793986887878 1.1361011059472998 1.2141910521612287 1.316636317752752 1.4245672797357467 1.5104357479931245 1.548426648481383 1.5250019381550892 1.443980286687164 1.3237615877007567 
0.865671152763967 0.9114429791453892 0.9536093096577013 0.9882066060897229 1.0185674827490203 1.0547961178984373 1.109585298970016 1.1908960741287657 1.2948622053991619 1.4034288934534418 1.4892378024621924 1.5260656216320516 1.4995358319571928 1.4124698035305165 1.282484215780329 
0.7579323744921161 0.818210017603062 0.8748629197633797 0.9216017939229335 0.9603390922261217 1.0009868399747643 1.0571575492779615 1.1383831817726349 1.242430122396187 1.3524212623586487 1.4413809599337668 1.4825309260554946 1.4600652662336544 1.3748059365022467 1.2423642553919252 
0.6747777930472015 0.7412812942645677 0.8031498485491864 0.8528637106516787 0.8917652936164835 0.930131807917357 0.9828160950416619 1.0611150293225835 1.1645890050842094 1.2776862550440886 1.3738729063776702 1.4256511259940994 1.4152745882194053 1.3406758252616098 1.2142957605437972 
0.6263994713050818 0.690419274543282 0.7477921433774114 0.7909205588187435 0.821483811303524 0.8506879810691788 0.8948696263025613 0.9671302410989022 1.0688060236583024 1.185694780647689 1.291775586100811 1.3588556506151988 1.367082403888627 1.3110246167345028 1.1991469286058862 

1.5506734951066594 1.6397287723181107 1.6921029635494138 1.7109270226076112 1.7050030037219939 1.6856760830117872 1.6635353341539219 1.6447148277819434 1.627685621947626 1.6027723599850314 1.5563301338813686 1.4789594033636835 1.3738262901043639 1.2597477159682091 1.1658561160832175 
1.5373016257502123 1.638008052716439 1.7045617036850835 1.736500709580819 1.7386248498994448 1.7194067120998024 1.6888189722186366 1.6549152752774714 1.6199984109029666 1.5788931845104455 1.5217165443597755 1.4409708370596483 1.3393486624452429 1.2330526969123126 1.147391059834454 
1.4817703601934964 1.586297849943079 1.6629372995349456 1.7080457242053702 1.7222829795031935 1.7105921834203666 1.6812896665215131 1.643123592183755 1.601015612948843 1.5532308708461637 1.4928007646270816 1.4134891267656218 1.3170601197837488 1.21684793809658 1.1343589417978284 
1.401003899163022 1.5001267987178273 1.5794008786103482 1.6329758612459453 1.6580144810277408 1.6560678972625884 1.6333675944568191 1.5984358857372265 1.5575869534476978 1.5112340519126923 1.4541915521169995 1.3806764522176351 1.291119208026959 1.195992445032835 1.11338311697188 
1.3182642885905214 1.40338782044283 1.4759665467491199 1.529304766192363 1.5583984312784298 1.562354173632202 1.5456335772765621 1.5161508334617197 1.4806717532005766 1.440548264811763 1.3912417548763822 1.3266461122087025 1.2455944050448724 1.1559406476311533 1.072962453231567 
1.2550291204062969 1.3198797155116413 1.376716191852923 1.4194708284649575 1.4426963062097888 1.444565480233997 1.4286805993965652 1.4024765056740276 1.3725964974035847 1.3403527146286227 1.3008714775026604 1.247093814306869 1.1761684871378284 1.0937582122495844 1.0130511458026064 
1.2245462163778371 1.2660749593005862 1.3005434298796237 1.3237909518999293 1.3316368282703452 1.3229737292707764 1.3016958680890132 1.2751590832121504 1.2495619160033176 1.2254102275250869 1.1966923166384142 1.1549299319820605 1.0956524395787586 1.0228744510657655 0.9484418491283195 
1.228833922734855 1.2472491523772504 1.2566148999211073 1.2555047880303531 1.2423059179239897 1.217981213913042 1.1876972410399813 1.1590853623640904 1.1376265497409896 1.122360334629454 1.1054621800926756 1.0766903462094817 1.0301145793542854 0.9686931260531645 0.9036614949239974 
1.2593491429050472 1.257535008920493 1.2434136386231285 1.2185184061353125 1.1844272567258032 1.1448975288019887 1.1068697104859115 1.0783176037594937 1.0636249469907395 1.0597277275984012 1.0563977328178105 1.041368711929648 1.0074549799801291 0.9571482090253075 0.9017760503820931 
1.3003311639845165 1.2830708278318301 1.2509200584869955 1.2079789707212054 1.1588831940149737 1.1101744275163812 1.0704895852174365 1.047860084120104 1.045066759887063 1.0563412407961232 1.0685658649773924 1.0672768236229935 1.0442616564010805 1.0021028174950364 0.9528853991694294 
1.3333324839936025 1.3066798820746217 1.2646551431339965 1.2130210793464395 1.1586954446064293 1.110374869623222 1.0778541684998006 1.0687094982920664 1.0836127185841193 1.1136421767858753 1.1424987638571111 1.1534844867990977 1.1376193809035682 1.0980789597765974 1.0483083457029503 
1.3416222937887277 1.31251649777592 1.2700973708063072 1.2205718354005866 1.171972052541805 1.1341695393369777 1.1173782981083589 1.1282138230104293 1.1649317230013132 1.2153152915251808 1.2598914615638388 1.2798814827481082 1.2658322237545203 1.2219246653863567 1.1634455431273016 
1.3136553011308783 1.2895967326637812 1.2562634982587912 1.2190128614328564 1.185734651178978 1.1664595766953916 1.1711671709419758 1.2052445162732637 1.2645885813126112 1.333957864524045 1.3910646334238548 1.4154016599022876 1.3973440403305193 1.3423402919859182 1.2677900267439428 
1.2452663755139581 1.2337397499787173 1.2177711046105966 1.2007369870364424 1.189315787078994 1.1929073587075019 1.2208919213960763 1.2775230220117666 1.3568088065158919 1.4411526716390632 1.5061148800693633 1.5299465672693597 1.503088494760386 1.4322881449878175 1.337019850133791 
1.1404896999427931 1.1479198453499033 1.155255553495803 1.1631249405365813 1.1763110085414379 1.2031680938577485 1.252470756945864 1.327776260677389 1.4219902564217102 1.5160911593428854 1.5843079305095151 1.6041478328351402 1.5661983877271535 1.4782354910401296 1.3613876394813675 
1.0109569744232823 1.0412890081344113 1.074452473153376 1.1080591373617494 1.144796230723757 1.1919646459621558 1.2580314362625646 1.3464998195157434 1.450079642118507 1.5493007806698067 1.617851197758966 1.6328713771663912 1.5849533900222887 1.4823090944508288 1.3469107716456312 
0.8738829358647063 0.9272323217651119 0.9845037192946158 1.0405767770501493 1.0963300280947763 1.1583525653913336 1.2352819922641287 1.331231276007193 1.4395260734941018 1.5410634322958474 1.6095936459958708 1.6220698866244305 1.5687305459605136 1.4573776233537767 1.3097137091441295 
0.7488407427050735 0.8208518884391908 0.8960683029155864 0.967430002653411 1.0347071696784433 1.1043642781574046 1.185733597992634 1.2840670908619631 1.3938643923244007 1.4969149458954552 1.5673799529131238 1.5820246487774483 1.5302643464403864 1.4185599594321197 1.2671132430254382 
0.6538544658040922 0.7362840686302434 0.8196366938189701 0.8960747765835118 0.9652414396395179 1.0341917402270382 1.1134207267593186 1.2096276474461485 1.3187267027315155 1.4236080372996889 1.4989692572675706 1.5213131267588036 1.4788340223479914 1.3758751074512419 1.2300455515982156 
0.6016364984407541 0.6842360498560465 0.7641492446539074 0.8340816147065139 0.8946440550077458 0.9542132515861119 1.0248000311090375 1.1146226792527725 1.2209522680031495 1.3277237466470386 1.4101665176455356 1.4445161772385595 1.417620032567843 1.331330216554873 1.199982647176073 

1.5000045321921935 1.569425002576763 1.6001592273102991 1.5980948396449537 1.5750723857144187 1.5451122010664822 1.5205539518965017 1.5079792912666137 1.504864253867313 1.499219029575933 1.4741475902225938 1.4166649799361064 1.3267462148442988 1.2211159675472438 1.1284130666391108 
1.4859756232164192 1.5642864309035382 1.6087463731464107 1.6212056570067421 1.608685351901007 1.5814109043077047 1.5503341220031497 1.5235020770360985 1.5021228237816544 1.4788787177372305 1.4409283336269576 1.377454207539527 1.2881136661315753 1.1870746564084111 1.099201633491428 
1.433339817240462 1.514700089648422 1.5702108479287689 1.5980845552587475 1.6004274051791252 1.5830815077778593 1.5546415336981592 1.5234595639545403 1.4933320006623814 1.4606491293131976 1.4159163374171277 1.3500239680184434 1.262046260406029 1.1634815430879581 1.0754726791057188 
1.3602977679775297 1.4380450855006899 1.4988409252532322 1.5381476546202655 1.5538520647990461 1.5477070785805673 1.525735058350202 1.4959010146940677 1.4635820299817794 1.4277863676654752 1.3814220383079876 1.316446511036189 1.2310722726856747 1.1341823630990908 1.0435065558741417 
1.2892967880047586 1.3574008048277117 1.4158007974505686 1.4584229099733896 1.4802978198963728 1.4802164002410474 1.4622132879414238 1.43378504250235 1.4012364672844617 1.3652356727158508 1.3201636835115487 1.2584251715104862 1.1772003214226268 1.0830047237747569 0.9906526936492362 